# vtk DataFile Version 3.0
d-2__ created by libgimli-v1.1.0
ASCII
DATASET UNSTRUCTURED_GRID
POINTS 570 double
14.5	0	0
14.25	0	0
14.386963504964	-0.201738469428	0
22.399299936458	-0.310870122736	0
22.129824335287	-0.229914148082	0
22.126320781198	-0.518791771445	0
8.472303742627	-0.591754876635	0
8.780507935475	-0.76092407121	0
8.82173151259	-0.349253271447	0
18.663262297679	-0.667179415955	0
18.934786529245	-0.453308328646	0
18.636898038907	-0.29588182328	0
4.016904362632	-0.85330676142	0
4.076038737616	-0.331410355179	0
3.713721571226	-0.470767763626	0
1.89953779852	-0.269343012166	0
1.633800503821	-0.203067612233	0
1.644492760828	-0.441295523531	0
4.368408037607	-0.250833874131	0
4.337474161742	-0.544420985055	0
4.67745607622	-0.378433532554	0
1.406172533733	-0.772361039307	0
1.913288206557	-1.218576310882	0
1.90687689783	-0.651895683444	0
2.5	0	0
2.25	0	0
2.347047126858	-0.185539804102	0
1.374000926997	-0.300418771701	0
1.25	0	0
1.114902662369	-0.201591505098	0
1.067401015567	-0.470108640981	0
5.75	0	0
5.699780065382	-0.324747799653	0
5.924584257371	-0.172748359932	0
0.883560935405	-0.231136840652	0
1	0	0
9	0	0
9.117836368049	-0.253904480787	0
2.625577516194	-0.346770599322	0
17.859079774019	-0.943547525024	0
17.535029634209	-1.703182852412	0
18.338018094476	-1.366069799339	0
19.932263871771	-0.826489183604	0
19.881635677668	-0.346204516721	0
19.622287080959	-0.573770479943	0
1.5	0	0
1.75	0	0
23.25	0	0
23	0	0
23.109690227386	-0.220340974338	0
2.75	0	0
2.142562771237	-0.172460438312	0
2	0	0
23.332392704446	-0.202507275941	0
23.5	0	0
19	0	0
18.75	0	0
18.888143078348	-0.195773419804	0
2.90152418742	-0.185685383897	0
7.612175045312	-0.180627982114	0
7.527150943175	-0.401430797998	0
7.881917737402	-0.30462800112	0
25.630635194756	-0.512020961038	0
25.243766894324	-0.80097755811	0
25.758031115142	-0.952821630144	0
3	0	0
28.84859809239	-0.201276387394	0
29	0	0
28.75	0	0
4	0	0
3.835807353334	-0.199536243303	0
3.106904732949	-0.178783649348	0
29.25	0	0
29.092446172194	-0.305987136665	0
13.5	0	0
13.667851890428	-0.185102765244	0
13.75	0	0
3.75	0	0
14.407363653886	-0.441423674912	0
14.125469935998	-0.279652141152	0
4.25	0	0
5.061980176718	-0.407989246181	0
5.335512032876	-0.269401530321	0
5.113979852892	-0.173834924157	0
11.882046000841	-0.812345557852	0
12.478640631525	-1.146569360669	0
12.244190771573	-0.565936619511	0
3.633270844505	-0.195395238442	0
14	0	0
18.378272976509	-0.514977451159	0
5.5	0	0
9.619519097921	-1.16461851757	0
10.030576753886	-1.587265312651	0
9.961661342999	-1.070235523667	0
5.25	0	0
5	0	0
13.157975569138	-0.830425793913	0
13.83833027638	-1.238601004239	0
13.671302359608	-0.710707966059	0
11.325917093147	-0.8366783502	0
11.612143285947	-0.506264798476	0
6	0	0
7	0	0
6.83842404292	-0.188923754932	0
7.11236984822	-0.391746146843	0
6.631875629497	-0.169178192832	0
6.75	0	0
3.21002197083	-0.595267231049	0
3.445510026908	-0.608065324465	0
3.362318141622	-0.306501255187	0
6.120159502895	-0.164221934939	0
4.538525595924	-0.906226152762	0
13.233775457127	-1.737244787017	0
4.5	0	0
16.138065841822	-0.472802517973	0
16.126746690205	-0.221608117926	0
15.859319180798	-0.326402762318	0
26.080401003391	-0.227842452866	0
26.25	0	0
26	0	0
3.019224421113	-0.401469974918	0
8.234901607028	-0.35771789179	0
8.518285578354	-0.242327591839	0
8.328777073389	-0.153008859619	0
7.25	0	0
7.400656881666	-0.195280611572	0
7.5	0	0
5.385509485898	-0.709154879541	0
5.948697127931	-0.745234910621	0
8.75	0	0
8.5	0	0
8.25	0	0
2.214249105773	-0.404278959534	0
2.896561357202	-0.792481120253	0
9.25	0	0
4.920911116561	-0.192028847294	0
9.651670336652	-0.200847798694	0
9.849824537955	-0.19917205686	0
9.75	0	0
10.095049354068	-0.315754204277	0
10	0	0
3.25	0	0
6.738406513564	-0.710129601907	0
7.121614580011	-0.943026074581	0
11.345829942703	-0.314788260019	0
11.25	0	0
11.104427225455	-0.188863495516	0
6.052412255932	-0.372556729023	0
6.373371846535	-0.274163514827	0
10.25	0	0
10.380281579003	-0.241092027437	0
10.5	0	0
10.75	0	0
10.909079077441	-0.189427130481	0
11	0	0
6.25	0	0
6.5	0	0
4.75	0	0
3.5	0	0
10.672815698565	-0.318467932684	0
10.772487906066	-0.787092734739	0
11.020900486567	-0.439266778492	0
8	0	0
7.75	0	0
11.5	0	0
11.619450354737	-0.231443672836	0
11.75	0	0
8.139317726831	-0.163309591658	0
12.25	0	0
12.158949464947	-0.235415698299	0
12.412455385193	-0.275030800337	0
12.929165084344	-0.221336108042	0
12.686337592177	-0.258437422252	0
12.900449535554	-0.462768612232	0
12.5	0	0
9.405755833308	-0.325979504745	0
9.111697192308	-0.594170467817	0
9.457257345083	-0.753685223931	0
18.101369157139	-0.618560521812	0
18.336839281097	-0.861122419318	0
10.385948631267	-0.570640149046	0
9.5	0	0
13.411260455969	-0.342646276848	0
12.643108055516	-0.590179775368	0
13.137744715761	-0.195204172124	0
13	0	0
21.25	0	0
21.358341816502	-0.326561417551	0
21.5	0	0
13.816492716597	-0.40394453634	0
20.25	0	0
20.423452336785	-0.313445603959	0
20.5	0	0
17.789350393153	-0.390447709085	0
17.987794057246	-0.401472255242	0
17.881276545163	-0.206424156589	0
19.564465692234	-0.270867872644	0
19.290725118801	-0.49926248604	0
16.392319441256	-0.29915360323	0
19.443730892406	-0.923508713428	0
20.457987075478	-0.803203365193	0
20.167450719332	-0.505159975143	0
0.103762538371	-0.253013629949	0
0.267057015134	-0.483604909932	0
0.374713194419	-0.2320817565	0
13.25	0	0
17.415572543912	-0.230682214253	0
17.5	0	0
17.25	0	0
18.108153655084	-0.208141099276	0
18.25	0	0
18	0	0
15.75	0	0
15.544586046819	-0.246453491997	0
15.122708481244	-0.193620038745	0
15.25	0	0
15	0	0
19.75	0	0
24.149237782749	-0.319013340846	0
23.842766599446	-0.577371105011	0
24.183995039967	-0.73159476451	0
13.871646321742	-0.17394291424	0
23.862588150518	-0.245417872715	0
16.84024277193	-0.203626765466	0
16.704049384397	-0.435508179396	0
17.112673188265	-0.38804641709	0
24.75	0	0
24.832880292394	-0.290571430318	0
25	0	0
16.40158555625	-0.755912194683	0
16.850299990829	-0.757941865332	0
17.75	0	0
23.567455674596	-0.325197491724	0
16.25	0	0
16	0	0
22.645812614293	-0.197864648876	0
22.75	0	0
22.5	0	0
16.75	0	0
17	0	0
24	0	0
26.914424714815	-0.337869958787	0
26.621963281699	-0.624626679172	0
26.977877660759	-0.778408201088	0
26.622424322919	-0.264588309935	0
19.34462271879	-0.199329831305	0
19.25	0	0
19.118057075065	-0.225686869553	0
19.5	0	0
26.75	0	0
27	0	0
27.5	0	0
27.604422363523	-0.298869962794	0
27.75	0	0
17.650384190064	-0.227839036584	0
18.343198956448	-0.236734208617	0
18.5	0	0
24.25	0	0
20.143897114391	-0.233773711865	0
25.5	0	0
25.25	0	0
25.344389320279	-0.31693710653	0
21.059546193318	-0.24845941382	0
20	0	0
25.842927934822	-0.248287716678	0
25.75	0	0
25.613904645132	-0.216025146631	0
21	0	0
11.763551406169	-1.481607093928	0
30.981104050195	-0.5526690913	0
30.873880294509	-0.217692518774	0
30.706626759758	-0.34945139905	0
20.75	0	0
20.85240828135	-0.178025243856	0
23.75	0	0
20.66289882074	-0.189089155251	0
30.204950808504	-0.791758966623	0
30.715535843381	-1.149995259266	0
30.543724897762	-0.572259098027	0
30	0	0
30.180216671806	-0.343473673313	0
30.25	0	0
23.229584388362	-0.458653998547	0
29.5	0	0
29.623391954444	-0.322069028408	0
29.75	0	0
21.618913855927	-0.233585823579	0
21.75	0	0
29.348490380579	-0.521100538161	0
29.36294710412	-0.230601226356	0
22	0	0
22.25	0	0
28.25	0	0
28	0	0
28.129259193923	-0.314252106503	0
28.44374413871	-0.484576386004	0
28.100199615755	-0.812038297775	0
28.649230646972	-0.871769248311	0
28.618403654115	-0.227691192115	0
28.5	0	0
28.387848605749	-0.205892081491	0
29.054768525933	-0.708603081552	0
29.344906532636	-0.846887322836	0
26.327430876245	-0.35930637997	0
10.349120516034	-1.04150119828	0
10.894920134778	-1.514321070539	0
24.59640839418	-0.191760546865	0
12.75	0	0
24.5	0	0
13.102881121377	-0.411296235356	0
25.099388239946	-0.214879887129	0
25.97986022697	-0.52841375324	0
24.398993403151	-0.196312410538	0
17.860840746535	-0.577367743328	0
17.566481510048	-0.529340016102	0
26.5	0	0
16.637148248735	-0.188015807345	0
18.183918302467	-0.396443618316	0
27.159348252167	-0.205297590358	0
27.357530053515	-0.198815038154	0
27.25	0	0
15.060354649709	-1.112587998155	0
15.51532665618	-1.043792149387	0
15.178150912169	-0.713100616689	0
10.051363365948	-0.719159376333	0
14.661248691948	-0.27865166374	0
14.75	0	0
27.868836823455	-0.217301839861	0
31	0	0
30.75	0	0
-0.020273477909	-1.415389842481	0
1.054972770973	-1.487485199502	0
0.512583677021	-1.0438154777	0
0.75	0	0
2.361419414365	-0.794513604096	0
29.890297721653	-0.2433406165	0
30.473599299501	-0.238575611274	0
30.5	0	0
30.660802173874	-0.161931182737	0
28.783812899585	-0.467926883932	0
4.937022539393	-0.72440615077	0
6.696914540879	-0.380672503721	0
7.434272221796	-0.695675918868	0
15.339606453815	-0.166204802571	0
15.281953315711	-0.388999642276	0
11.893544445085	-0.335972898148	0
12	0	0
9.753796445798	-0.478866225926	0
7.720012958977	-0.638314519759	0
21.871398197179	-0.313006985103	0
21.615176662754	-0.521922347305	0
21.856785525528	-0.665128848631	0
20.792152536902	-0.448319093295	0
21.109577821412	-0.527879642114	0
21.360297691811	-0.734200004244	0
15.547854961707	-0.580173571081	0
24.496861814148	-0.467031445896	0
25.067351422649	-0.463427753535	0
24.81263825963	-0.684738154192	0
22.865620821195	-0.218348593093	0
23.443705587002	-0.773171720633	0
27.277617447467	-0.489224417775	0
27.863714790534	-0.471681393437	0
26.239117668995	-0.863279739365	0
29.896797054636	-0.547765129844	0
29.612773839625	-0.699757135752	0
29.867172666547	-0.87444432816	0
29.610354212963	-1.521444655905	0
29.59548165142	-1.071765512911	0
29.115129171034	-1.220660174798	0
31.345359428525	-0.458952144926	0
31.144859415042	-0.241304201582	0
15.919565295974	-0.746550096707	0
16.063006820294	-1.289595303187	0
16.5	0	0
14.900855313538	-0.178071167744	0
14.161016743654	-0.72559708689	0
19.011498044983	-0.834202892304	0
16.760433281999	-1.263698818643	0
17.280361389946	-0.931704507314	0
-0.627742252535	-0.296285438777	0
-1	0	0
-1	-0.5	0
0.625738545692	-0.228405936136	0
0.5	0	0
3.313957665883	-0.865581185485	0
3.619156095452	-0.800599314657	0
[...]
CELL_DATA 986
SCALARS 124.00_0.73 double 1
LOOKUP_TABLE default
22.132038647412 5.7637978373499 5.5018126959119 6.0081106700558 5.7456503085482 8.3795636012156 5.5997942488608 6.1512106638658 9.6611627671444 6.9826524496712 7.965415620736 8.0443088860962 10.077952022349 6.3040067485424 11.160653583209 6.5286839403865 4.4561431187688 9.0669783440649 7.6100213517881 7.7184740479739 19.417853159167 13.12618631956 6.6804792540007 8.068980209371 8.9688991252384 14.717047770264 6.3731416617552 6.8863822078423 14.366423208245 10.288728828416 6.1581144106685 8.6025959409897 7.3756546699483 6.2235538808602 5.4453036440285 11.057155334954 6.3917907514862 7.9757151869279 4.3772112957722 5.5045095680649 15.876784631984 5.486260167862 10.888771442635 3.948213733245 13.276235524211 7.9285353188873 3.8333915615998 5.774404572545 8.1988431494888 7.0579785717812 9.2873674269067 8.8552362813276 5.5090386214426 8.7195450161587 5.1582734740334 7.0358013903542 3.7777063334138 6.2386547007839 8.4839476859356 7.7990454697083 5.974767252463 9.4248024648092 6.0366134421747 7.126925510844 9.3776930499754 9.947512724737 8.0179003104005 5.7833361242859 5.6174449094141 6.2685291896549 5.6405891639565 5.8001935946662 7.0755615925996 7.3209305567881 10.105261002694 6.9408137887211 6.9188648377676 7.9042480005437 14.255537290275 12.549609279586 5.6130325433388 6.1303582490038 9.6228993988243 8.7500398060997 8.518390986494 8.1818913418372 6.8816972924571 8.3408564692574 13.467568233804 17.436942429063 7.2941569444245 5.0972304030981 6.0322912314795 7.6870828411594 8.0033043500045 6.9034227505678 18.003628363966 11.778160369016 5.5746300683962 7.6869897770817 9.8952615764229 7.8229411127811 5.592512085089 11.712551187699 5.1475785741546 5.170113938788 8.8588470970606 5.7494323080292 4.6718400946788 5.9721363987815 5.3241453814535 6.2212155796959 5.787137426423 15.617821512962 4.9671145909662 7.9669909458717 6.3064812317141 16.673293240133 10.788753978247 8.1239757226258 8.1507379576301 6.6040657925505 8.6594655387341 5.5710255052943 5.5871452060346 11.746987284347 8.8516119624747 5.1650694886531 6.2951998840728 6.0727345535169 7.5463935251824 10.174254305514 8.0209649264986 10.339542935912 8.5478854285866 5.9189993365547 10.989860573336 9.5572766178612 7.8299376255098 5.6898434298284 5.5998053674503 11.199818258642 10.393728305352 4.962998019002 18.376365893501 11.347862066164 13.897378897398 5.9595848468203 7.3623196576586 6.1285225300488 18.08944145754 23.560648054258 6.1355998228777 15.493974668725 7.5481207665326 6.4764978106749 6.0445091731888 6.5124543076663 9.1289249477444 6.1282755092689 8.9110978150281 8.5936366998263 15.371052175098 9.14116009691 15.687383879818 18.660722108373 4.2494104708792 5.8298452995656 8.6909484628574 16.944051638794 10.727997110572 9.8231742241618 6.1044155960935 17.910932555258 6.912310376676 8.9223798899807 5.3706017307906 7.5254438215074 8.8375565232371 9.0003421464676 4.9874345136303 14.295044583951 8.8914547214194 6.3310252947745 7.5844374753837 6.5156708074201 11.442877981162 5.7287913045221 8.5452736874704 7.3597939508555 6.1120524542415 4.5781465499999 16.727744504245 4.9853995646445 8.4832369985417 20.990418964638 4.2225358517117 7.1099676934957 8.3929304068939 5.3274688065383 10.108620181647 8.0287717140945 4.5266086539193 10.503048971693 6.0297390523423 5.2748526613135 6.0133623896129 8.6985948632429 6.1352959651554 15.8161375091 5.718559900101 10.932640143927 5.9691451422937 6.2311026719461 5.926429766189 5.4982914123986 4.609575064135 6.373359699197 4.7473449280136 6.2838742760697 6.2166082373807 10.985293742997 10.297919205116 9.1238546556232 6.7087676447506 10.955863378395 9.5872204350405 6.4774762857767 8.4747680938425 7.6329844041377 5.2889890686028 4.6277434277698 7.6670654225083 7.8672280262724 15.357790741995 8.1267554409232 8.4197791693812 5.9541028578414 7.4012601307908 8.7831945200764 12.727658955631 8.768941002586 10.799512185136 9.4346606160567 5.6056805071084 6.0809756729662 5.2917178442968 5.516608484434 5.8241613606876 11.666218188091 6.0390848995428 10.978323952601 5.8098168479227 8.9079219994746 6.2720532266438 5.8459065395002 5.7832870580936 9.2293067382515 10.875511081035 5.7412249398417 7.8939306392798 5.7619116076464 8.8835166648763 7.4605912092952 8.7197633818595 6.0319607168972 6.2297215831259 6.4184106036353 10.036294747132 9.0176651049192 8.9169559662897 5.8715678046085 9.1234980856575 7.5456880275573 5.2843441679239 5.8411989111781 10.133848723863 6.4188402302952 9.5685753114876 11.075767119687 6.7380251509521 12.897065911215 9.36728195902 10.000246496027 5.7210829373235 10.440936656416 8.3465618195551 9.7855370285931 13.593186430668 10.75730241054 5.9133918518836 5.3878743027099 5.1068633254621 7.0664038888976 5.469097025195 7.2675811271865 6.0833935908196 5.8251864095058 11.897248269903 9.7553621417637 7.0858712230712 11.246756070157 10.918349273902 10.16294656064 7.6684999112877 5.2146366005749 8.8238513775219 10.127496447342 9.5606674921751 9.3270259617595 9.7329217215004 9.6330314468035 11.352638173934 10.336872062472 7.2790322372852 9.1056962481715 5.0039278632396 6.4904362883749 6.1659073894067 8.9719468732209 6.3267237394056 8.2331446532765 6.2472290119026 6.1762679556144 6.5005527104388 6.8282123712481 17.928539944334 5.9953931986905 7.1051352663968 5.3648614931967 5.5398189246538 8.0224648620017 5.9442234125229 8.1620927691211 8.5055002821661 9.0575835618423 5.5330801988645 16.632294462634 8.243421047513 6.0339201020723 4.3940760098651 5.6741814145478 8.3045528085794 11.346492413474 6.5191015284312 5.4731572365683 5.9370205668084 6.0939480373492 8.3556840273873 5.8752622624324 5.7030011784327 6.6158294957347 7.2143123588487 4.5282368174981 9.1653230490404 4.2949663576312 5.9440877890913 7.7466108729225 5.4271156761775 12.288793476176 5.7628996707224 5.1349054085804 7.1418346007695 7.4464752276414 7.7608618519221 5.5593771796779 5.0547055197165 5.8016718755043 5.188684379815 6.9387549506602 6.5274620956171 9.271934112941 8.6799840932957 7.144834495843 8.8968412223758 9.0611257303787 8.5248031121889 5.9306894098076 5.9964007379632 5.1032261901006 4.722086401526 5.8703968744307 7.923098747079 5.143824602961 16.631194629825 10.209248149277 6.6297206104367 9.4315308649613 5.8025996596104 8.8244014108945 7.5808946347652 7.0901653041658 5.0933738094329 10.039814094251 7.3572037841308 8.8931683148474 5.8212864547787 5.7195744481252 7.8810733272164 6.5035834127734 6.6191044956429 5.9617776291337 5.6887952822765 10.03332005835 7.5450670463078 9.9313591064089 4.6123186008826 5.7640807869599 9.5123371980935 5.7511313047884 13.535757707303 6.9873960110509 6.5105288262913 9.0166213421027 9.4385465931955 10.200019298576 8.6515218450215 7.3663755366888 5.6155727370349 5.8482300768556 5.9802569212408 5.1562926433226 6.2222667192762 5.760807308934 5.8157983502728 6.5140480670837 6.0269158937664 5.8144851531044 8.1967810205709 6.9722697689053 7.2344605894108 12.440400630363 10.709086128405 7.3487230539734 5.4011622576368 5.3674812660775 5.9309308943229 7.0321287717446 5.1829088628484 9.1622330277921 5.0504214897229 6.1387273038515 14.309742491757 10.40194743836 5.1069608234665 8.4626521235097 3.7556141697061 5.6563288726916 5.3063904215898 5.7103597248625 8.8529837339084 6.178598449639 11.148697388129 7.0254856999637 6.1805230699486 3.6766885021709 5.9729129892749 10.061021442457 7.2561892262269 8.9960173384912 7.6822710103427 12.842958553253 8.1266166656769 4.5565081993573 5.2275608747678 4.9016744112398 4.784280572355 5.8217691886224 5.3626372556306 4.6601694933013 5.3716007076328 6.8082678397798 4.9897800828289 4.8405812143646 4.535142301966 7.4249823722243 5.7817162463681 9.2689759253365 7.6517908634121 5.7089314031972 7.9132330549537 5.3843925876605 4.4317550280924 5.902909839309 5.6564908811254 5.4698496501783 6.5852774583775 8.2626161921234 7.9257329246561 6.2398278442152 3.5849872005516 9.1276406652328 11.673689178906 9.2024234891709 5.6095507650247 4.7808651713354 5.346872922262 3.5000213057699 5.7949271415983 8.0369440253964 5.5412579290849 4.7574444519968 4.1401204632714 5.1275601090178 5.7152490202218 13.902617772361 4.78900009476 9.2006678715517 13.789169916487 3.6467021326115 8.324046503806 9.10759386365 5.8068170516446 6.3812406236767 8.6127221545115 9.9945424242392 7.7329692858978 6.031974515509 6.0236767270455 6.5388674717822 6.1031489448569 5.3629583175442 7.3674683258356 6.3432894369159 5.4960878535174 5.5425881052349 5.1488232019884 11.61328402363 8.5649384068588 6.1699237992153 7.6886343088077 5.5116625543093 8.1825798271326 6.6996491543083 7.3641720935101 5.6150065504362 10.119715994972 8.651755599686 5.711332549282 4.6407159269549 9.0340838439658 3.3119293767774 10.321358262632 6.3059277628841 5.4991537429379 7.7517582375001 4.5781104535603 4.8434992865699 3.5794353774644 5.1557386607732 5.965354384505 4.0257255387751 5.9989689133559 4.9380256575625 7.4313187548956 7.4962860217311 5.405286652925 6.8790689320483 4.8449118446885 5.5244683342954 5.5783249416651 5.2440290702225 5.7181135653827 4.570364345342 5.3342174062979 5.8013638128122 4.5137341880453 3.8952434660735 8.8385941117648 7.7301511904624 8.2892389291721 5.5085733008129 9.7389069429363 3.6131651252272 10.19620167937 8.27973516329 3.8603785338845 4.5987267156952 6.0277006016996 5.0726581190193 6.5817726679426 4.925347998216 9.702105576987 8.6167239298097 3.8156061056223 7.1467688019892 5.8754885094383 5.9877811056226 8.66419248464 8.1138321754624 6.3584768162649 5.5712571958127 4.9047425974281 5.5662252671091 3.5168190579638 4.929248909122 4.4509970559334 5.3347597239702 4.7409769606515 5.2029692082894 4.5616969172844 6.4535268414168 7.0553687163352 5.1636247199687 4.5381286758716 4.1784899717976 4.5569947890545 5.7516437109741 7.574993230928 5.2327862927697 4.7792730126682 7.3128908471199 5.1913971855007 14.765115547633 5.4495817829565 9.6431028983133 5.6679570382453 3.5021450585085 5.7076511731117 5.8243023424563 7.0797041208879 5.9245614111558 5.7150282924509 6.7491423686359 6.7365305804052 5.1759877712767 7.0905588752655 5.3036577298269 4.0285889240182 4.4695942539476 4.2583216072943 5.0375317021699 4.282566691502 4.4090677024799 4.8624169611132 5.000047557286 3.3021528038406 3.8891957322357 4.6257679988549 4.9375801960693 4.663368028331 4.0939553310473 3.8833944626838 4.6630269825374 3.4629586531524 4.9495906328691 6.7626200813863 5.3577203990643 5.6815402938962 5.2081891779174 5.3580390439632 5.3532320718006 6.1363668540086 7.4015628391534 5.5498978549223 5.7872805329689 6.0372288504295 5.5850112968384 5.6202878298036 5.8750998914692 6.0798488997159 5.731249906172 5.5115960285463 5.7189531558643 5.8577456324593 5.823885429791 6.0213472443778 5.8715616405979 6.2448124981956 6.00955804762 6.0891050198638 6.0167470097666 6.1988667169982 4.6069927956213 6.0608825943063 9.6077085892435 4.3569697040453 9.4773375259403 5.2214292948453 4.7959640035755 4.849528631404 6.2021810504518 5.8897923273846 5.7407676382191 5.3171495862371 4.7495585552105 5.363152937458 6.813825974144 12.494706751347 5.8407080609603 6.1879346277892 4.8896598917929 4.6113765239626 3.8155236214299 4.3193735690001 6.5582488815648 5.0170961940517 5.6010881845647 5.4629553289232 6.1418866047216 6.9030556219536 6.6411504418583 6.5291688039252 6.4705814807201 5.4360611157591 6.1064717188118 5.4133456267852 6.2258040936035 6.1419503877718 3.8544649179849 4.6167993250887 4.4088285238316 4.7542409616163 4.8764507255872 4.4154560600095 4.9182809993188 6.9673258414191 4.8153894583052 20.26165261977 12.787373204408 4.5717184259809 3.8437866248698 5.8544724578616 5.2235651028964 4.7065311187179 4.7219438649822 5.0221435178606 4.7915952644351 11.150031574819 4.5882394893993 5.0673961497054 4.977058256489 4.097586508919 10.446675366503 4.0270031896526 5.2804507910792 10.672023349523 3.8161403290356 4.5378515220477 5.9108518360116 8.5095094025636 4.3496870281247 3.6691750911409 3.9288602893108 5.0650233742942 4.8786368680521 4.4179182738252 4.4353908876948 3.9615155807686 3.7741164967619 6.5348993873141 4.8687303917013 5.113899824453 5.1302753323475 5.8611258043605 5.1352646462561 5.1569088548924 10.164290399909 4.4084733075072 4.518141443071 3.6987693500486 3.53780904679 4.9013474440606 4.9779413366147 5.0195797429136 4.4786966337727 3.7788105817053 3.888976048914 3.8497624309137 3.8749350596236 8.2973286399878 5.4455627305226 4.7107782580203 3.6183800778899 4.1591046453563 4.1609065762927 6.1982154489929 6.700378452929 5.6779416959733 5.8507319845804 5.1409757706951 5.3587972176913 5.0983166244319 4.8401256888127 5.2757192598431 5.0934237497657 4.4697640027758 4.8204845498762 5.5355403961384 5.4230786316436 4.9970455972285 4.7560386948294 4.9605643652836 5.2117852699189 4.296001955801 4.1861952723042 4.8516417559232 5.072667675448 4.4570584719224 4.8554537368999 3.4439045261786 4.7303103078594 5.0450976042565 6.0262425216639 4.6794555316719 3.5728792602793 4.6287723204623 8.2422208672842 6.9645627648844 3.5953448352798 3.8394687659968 3.6499926043123 3.7954452595734 4.8526285208341 17.785583692267 4.9147885010225 5.1136901692259 5.0521500966571 3.8696578801933 4.366337680605 5.2276462885593 4.296203816329 4.2241064720027 4.5614232696967 5.2345626240939 4.7034976072342 4.4276306416633 4.6620603145539 4.4299162764325 4.6961700574083 3.5622565969976 4.5045348774769 3.5613211124873 4.4007539556497 4.8002895191265 4.9370769171298 4.6995269117623 3.9690824540084 3.3748324316661 3.5542919904354 3.4122713449854 4.0818188981051 4.3263887393948 4.2010248454702 4.6377867538366 4.420282374515 4.9578635641912 4.88863994128 4.7636420133438 3.5113200523938 3.5753173537027 4.5704750871133 4.4675422760074 4.4646631936768 4.9913195850266 3.8772327975669 4.3339680154501 3.4620485045117 3.5117634622078 4.4513353416536 4.55486094032 3.3680636844358 3.6287595255151 4.656831763152 4.6072807231959 4.6115262359004 4.9099515301268 4.4897620130963 3.6851765136651 4.0257960761216 3.6062912152648 4.9567187711628 4.4097586878185 4.9301627094965 3.5757713568566 4.0056786001634 4.7404615379833 4.7334269480979 4.625954294305 4.802003437929 4.6656340610508 4.5438770042384 4.114293817691 4.1315083975208 3.8220532317791 3.3794783932193 3.8467517045691 3.6215668874205 4.7802781488328 4.5337821494183 4.3633044985347 4.1626703785883 4.1167050785192 5.006186720813 4.3751836450141 3.9083867018504 4.1612442403306 4.3038194436369 4.4310345330276 4.3683525494801 4.7365709500771 4.6287585709084 4.389403090121 4.6376980248432 4.9821947612143 4.5584169059617 4.5953805625531 4.4692165466955 3.9105264236646 4.2744317807054 4.8430277917908 4.877049427044 4.9989465522599 4.2156688328185 4.4676922995974 4.1338581736854 4.6302089902537 4.6471011368229 4.8622266452383 4.9413793685188 4.4403008283369 5.296649304973 4.6663384287354 5.1172029825489 4.8610661562054 4.5531370824927 4.8151838796111 4.9373863111918 4.8232836990716 4.1307898666689 3.9781305049256 4.5352893933803 4.3456848417815 4.2857893377722 4.238535472295 4.440910592585 4.7044844569969 4.3243499463208 4.4643395553852 4.6447164535633 4.6682377849963 4.4480421992569 4.9302558387489 4.7087441049581 4.8891635720052 4.5135891153463 5.1639189665638 4.5626612948079 4.4895692981131 4.7655224257401 4.4170764403247 4.3159103888247 4.456105061215 4.7044179099071 4.9284537120292 4.6707226533458 5.0926635500172 5.1101939086033 5.0400657666795 4.908240628622 4.1552332561578 5.4107879307407 5.2672742167114 5.2523875714408 5.1573819752754 5.3113554146737 5.40922800771 5.1819363196944 4.9690511551828 4.2943593330369 4.5695014934488 4.420009566356 4.2020037512629 4.9852322891801 4.5705267299705 4.2886027880261 4.6450131372345 4.7407523385154 4.6152033184147 4.3317086459666 4.0216485015915 4.107115943263 3.8364481812643 4.0654688817609 3.9161897502489 3.8312464710978 
SCALARS 186.00_1.08 double 1
LOOKUP_TABLE default