# vtk DataFile Version 3.0
d-2__ created by libgimli-v1.1.0
ASCII
DATASET UNSTRUCTURED_GRID
POINTS 570 double
14.5	0	0
14.25	0	0
14.386963504964	-0.201738469428	0
22.399299936458	-0.310870122736	0
22.129824335287	-0.229914148082	0
22.126320781198	-0.518791771445	0
8.472303742627	-0.591754876635	0
8.780507935475	-0.76092407121	0
8.82173151259	-0.349253271447	0
18.663262297679	-0.667179415955	0
18.934786529245	-0.453308328646	0
18.636898038907	-0.29588182328	0
4.016904362632	-0.85330676142	0
4.076038737616	-0.331410355179	0
3.713721571226	-0.470767763626	0
1.89953779852	-0.269343012166	0
1.633800503821	-0.203067612233	0
1.644492760828	-0.441295523531	0
4.368408037607	-0.250833874131	0
4.337474161742	-0.544420985055	0
4.67745607622	-0.378433532554	0
1.406172533733	-0.772361039307	0
1.913288206557	-1.218576310882	0
1.90687689783	-0.651895683444	0
2.5	0	0
2.25	0	0
2.347047126858	-0.185539804102	0
1.374000926997	-0.300418771701	0
1.25	0	0
1.114902662369	-0.201591505098	0
1.067401015567	-0.470108640981	0
5.75	0	0
5.699780065382	-0.324747799653	0
5.924584257371	-0.172748359932	0
0.883560935405	-0.231136840652	0
1	0	0
9	0	0
9.117836368049	-0.253904480787	0
2.625577516194	-0.346770599322	0
17.859079774019	-0.943547525024	0
17.535029634209	-1.703182852412	0
18.338018094476	-1.366069799339	0
19.932263871771	-0.826489183604	0
19.881635677668	-0.346204516721	0
19.622287080959	-0.573770479943	0
1.5	0	0
1.75	0	0
23.25	0	0
23	0	0
23.109690227386	-0.220340974338	0
2.75	0	0
2.142562771237	-0.172460438312	0
2	0	0
23.332392704446	-0.202507275941	0
23.5	0	0
19	0	0
18.75	0	0
18.888143078348	-0.195773419804	0
2.90152418742	-0.185685383897	0
7.612175045312	-0.180627982114	0
7.527150943175	-0.401430797998	0
7.881917737402	-0.30462800112	0
25.630635194756	-0.512020961038	0
25.243766894324	-0.80097755811	0
25.758031115142	-0.952821630144	0
3	0	0
28.84859809239	-0.201276387394	0
29	0	0
28.75	0	0
4	0	0
3.835807353334	-0.199536243303	0
3.106904732949	-0.178783649348	0
29.25	0	0
29.092446172194	-0.305987136665	0
13.5	0	0
13.667851890428	-0.185102765244	0
13.75	0	0
3.75	0	0
14.407363653886	-0.441423674912	0
14.125469935998	-0.279652141152	0
4.25	0	0
5.061980176718	-0.407989246181	0
5.335512032876	-0.269401530321	0
5.113979852892	-0.173834924157	0
11.882046000841	-0.812345557852	0
12.478640631525	-1.146569360669	0
12.244190771573	-0.565936619511	0
3.633270844505	-0.195395238442	0
14	0	0
18.378272976509	-0.514977451159	0
5.5	0	0
9.619519097921	-1.16461851757	0
10.030576753886	-1.587265312651	0
9.961661342999	-1.070235523667	0
5.25	0	0
5	0	0
13.157975569138	-0.830425793913	0
13.83833027638	-1.238601004239	0
13.671302359608	-0.710707966059	0
11.325917093147	-0.8366783502	0
11.612143285947	-0.506264798476	0
6	0	0
7	0	0
6.83842404292	-0.188923754932	0
7.11236984822	-0.391746146843	0
6.631875629497	-0.169178192832	0
6.75	0	0
3.21002197083	-0.595267231049	0
3.445510026908	-0.608065324465	0
3.362318141622	-0.306501255187	0
6.120159502895	-0.164221934939	0
4.538525595924	-0.906226152762	0
13.233775457127	-1.737244787017	0
4.5	0	0
16.138065841822	-0.472802517973	0
16.126746690205	-0.221608117926	0
15.859319180798	-0.326402762318	0
26.080401003391	-0.227842452866	0
26.25	0	0
26	0	0
3.019224421113	-0.401469974918	0
8.234901607028	-0.35771789179	0
8.518285578354	-0.242327591839	0
8.328777073389	-0.153008859619	0
7.25	0	0
7.400656881666	-0.195280611572	0
7.5	0	0
5.385509485898	-0.709154879541	0
5.948697127931	-0.745234910621	0
8.75	0	0
8.5	0	0
8.25	0	0
2.214249105773	-0.404278959534	0
2.896561357202	-0.792481120253	0
9.25	0	0
4.920911116561	-0.192028847294	0
9.651670336652	-0.200847798694	0
9.849824537955	-0.19917205686	0
9.75	0	0
10.095049354068	-0.315754204277	0
10	0	0
3.25	0	0
6.738406513564	-0.710129601907	0
7.121614580011	-0.943026074581	0
11.345829942703	-0.314788260019	0
11.25	0	0
11.104427225455	-0.188863495516	0
6.052412255932	-0.372556729023	0
6.373371846535	-0.274163514827	0
10.25	0	0
10.380281579003	-0.241092027437	0
10.5	0	0
10.75	0	0
10.909079077441	-0.189427130481	0
11	0	0
6.25	0	0
6.5	0	0
4.75	0	0
3.5	0	0
10.672815698565	-0.318467932684	0
10.772487906066	-0.787092734739	0
11.020900486567	-0.439266778492	0
8	0	0
7.75	0	0
11.5	0	0
11.619450354737	-0.231443672836	0
11.75	0	0
8.139317726831	-0.163309591658	0
12.25	0	0
12.158949464947	-0.235415698299	0
12.412455385193	-0.275030800337	0
12.929165084344	-0.221336108042	0
12.686337592177	-0.258437422252	0
12.900449535554	-0.462768612232	0
12.5	0	0
9.405755833308	-0.325979504745	0
9.111697192308	-0.594170467817	0
9.457257345083	-0.753685223931	0
18.101369157139	-0.618560521812	0
18.336839281097	-0.861122419318	0
10.385948631267	-0.570640149046	0
9.5	0	0
13.411260455969	-0.342646276848	0
12.643108055516	-0.590179775368	0
13.137744715761	-0.195204172124	0
13	0	0
21.25	0	0
21.358341816502	-0.326561417551	0
21.5	0	0
13.816492716597	-0.40394453634	0
20.25	0	0
20.423452336785	-0.313445603959	0
20.5	0	0
17.789350393153	-0.390447709085	0
17.987794057246	-0.401472255242	0
17.881276545163	-0.206424156589	0
19.564465692234	-0.270867872644	0
19.290725118801	-0.49926248604	0
16.392319441256	-0.29915360323	0
19.443730892406	-0.923508713428	0
20.457987075478	-0.803203365193	0
20.167450719332	-0.505159975143	0
0.103762538371	-0.253013629949	0
0.267057015134	-0.483604909932	0
0.374713194419	-0.2320817565	0
13.25	0	0
17.415572543912	-0.230682214253	0
17.5	0	0
17.25	0	0
18.108153655084	-0.208141099276	0
18.25	0	0
18	0	0
15.75	0	0
15.544586046819	-0.246453491997	0
15.122708481244	-0.193620038745	0
15.25	0	0
15	0	0
19.75	0	0
24.149237782749	-0.319013340846	0
23.842766599446	-0.577371105011	0
24.183995039967	-0.73159476451	0
13.871646321742	-0.17394291424	0
23.862588150518	-0.245417872715	0
16.84024277193	-0.203626765466	0
16.704049384397	-0.435508179396	0
17.112673188265	-0.38804641709	0
24.75	0	0
24.832880292394	-0.290571430318	0
25	0	0
16.40158555625	-0.755912194683	0
16.850299990829	-0.757941865332	0
17.75	0	0
23.567455674596	-0.325197491724	0
16.25	0	0
16	0	0
22.645812614293	-0.197864648876	0
22.75	0	0
22.5	0	0
16.75	0	0
17	0	0
24	0	0
26.914424714815	-0.337869958787	0
26.621963281699	-0.624626679172	0
26.977877660759	-0.778408201088	0
26.622424322919	-0.264588309935	0
19.34462271879	-0.199329831305	0
19.25	0	0
19.118057075065	-0.225686869553	0
19.5	0	0
26.75	0	0
27	0	0
27.5	0	0
27.604422363523	-0.298869962794	0
27.75	0	0
17.650384190064	-0.227839036584	0
18.343198956448	-0.236734208617	0
18.5	0	0
24.25	0	0
20.143897114391	-0.233773711865	0
25.5	0	0
25.25	0	0
25.344389320279	-0.31693710653	0
21.059546193318	-0.24845941382	0
20	0	0
25.842927934822	-0.248287716678	0
25.75	0	0
25.613904645132	-0.216025146631	0
21	0	0
11.763551406169	-1.481607093928	0
30.981104050195	-0.5526690913	0
30.873880294509	-0.217692518774	0
30.706626759758	-0.34945139905	0
20.75	0	0
20.85240828135	-0.178025243856	0
23.75	0	0
20.66289882074	-0.189089155251	0
30.204950808504	-0.791758966623	0
30.715535843381	-1.149995259266	0
30.543724897762	-0.572259098027	0
30	0	0
30.180216671806	-0.343473673313	0
30.25	0	0
23.229584388362	-0.458653998547	0
29.5	0	0
29.623391954444	-0.322069028408	0
29.75	0	0
21.618913855927	-0.233585823579	0
21.75	0	0
29.348490380579	-0.521100538161	0
29.36294710412	-0.230601226356	0
22	0	0
22.25	0	0
28.25	0	0
28	0	0
28.129259193923	-0.314252106503	0
28.44374413871	-0.484576386004	0
28.100199615755	-0.812038297775	0
28.649230646972	-0.871769248311	0
28.618403654115	-0.227691192115	0
28.5	0	0
28.387848605749	-0.205892081491	0
29.054768525933	-0.708603081552	0
29.344906532636	-0.846887322836	0
26.327430876245	-0.35930637997	0
10.349120516034	-1.04150119828	0
10.894920134778	-1.514321070539	0
24.59640839418	-0.191760546865	0
12.75	0	0
24.5	0	0
13.102881121377	-0.411296235356	0
25.099388239946	-0.214879887129	0
25.97986022697	-0.52841375324	0
24.398993403151	-0.196312410538	0
17.860840746535	-0.577367743328	0
17.566481510048	-0.529340016102	0
26.5	0	0
16.637148248735	-0.188015807345	0
18.183918302467	-0.396443618316	0
27.159348252167	-0.205297590358	0
27.357530053515	-0.198815038154	0
27.25	0	0
15.060354649709	-1.112587998155	0
15.51532665618	-1.043792149387	0
15.178150912169	-0.713100616689	0
10.051363365948	-0.719159376333	0
14.661248691948	-0.27865166374	0
14.75	0	0
27.868836823455	-0.217301839861	0
31	0	0
30.75	0	0
-0.020273477909	-1.415389842481	0
1.054972770973	-1.487485199502	0
0.512583677021	-1.0438154777	0
0.75	0	0
2.361419414365	-0.794513604096	0
29.890297721653	-0.2433406165	0
30.473599299501	-0.238575611274	0
30.5	0	0
30.660802173874	-0.161931182737	0
28.783812899585	-0.467926883932	0
4.937022539393	-0.72440615077	0
6.696914540879	-0.380672503721	0
7.434272221796	-0.695675918868	0
15.339606453815	-0.166204802571	0
15.281953315711	-0.388999642276	0
11.893544445085	-0.335972898148	0
12	0	0
9.753796445798	-0.478866225926	0
7.720012958977	-0.638314519759	0
21.871398197179	-0.313006985103	0
21.615176662754	-0.521922347305	0
21.856785525528	-0.665128848631	0
20.792152536902	-0.448319093295	0
21.109577821412	-0.527879642114	0
21.360297691811	-0.734200004244	0
15.547854961707	-0.580173571081	0
24.496861814148	-0.467031445896	0
25.067351422649	-0.463427753535	0
24.81263825963	-0.684738154192	0
22.865620821195	-0.218348593093	0
23.443705587002	-0.773171720633	0
27.277617447467	-0.489224417775	0
27.863714790534	-0.471681393437	0
26.239117668995	-0.863279739365	0
29.896797054636	-0.547765129844	0
29.612773839625	-0.699757135752	0
29.867172666547	-0.87444432816	0
29.610354212963	-1.521444655905	0
29.59548165142	-1.071765512911	0
29.115129171034	-1.220660174798	0
31.345359428525	-0.458952144926	0
31.144859415042	-0.241304201582	0
15.919565295974	-0.746550096707	0
16.063006820294	-1.289595303187	0
16.5	0	0
14.900855313538	-0.178071167744	0
14.161016743654	-0.72559708689	0
19.011498044983	-0.834202892304	0
16.760433281999	-1.263698818643	0
17.280361389946	-0.931704507314	0
-0.627742252535	-0.296285438777	0
-1	0	0
-1	-0.5	0
0.625738545692	-0.228405936136	0
0.5	0	0
3.313957665883	-0.865581185485	0
3.619156095452	-0.800599314657	0
[...]
CELL_DATA 986
SCALARS 124.00_0.34 double 1
LOOKUP_TABLE default
12.347285996216 10.698216375595 8.9168769726259 9.1022735012348 8.0710581127406 10.842270364243 9.5765609034074 6.2502724548342 12.135441583293 10.163286903841 9.5366080001188 12.433104321933 10.527659795787 12.088429184194 12.016744119937 10.606757278588 4.9844613718977 8.6913619583394 12.906586419306 13.612074235363 12.39387731309 12.235286128121 13.93357269726 11.534744124486 11.00607765985 11.892957646856 11.547058801509 6.8703164950866 12.211651950559 12.02865193422 10.896337598225 11.454770750118 12.380329792399 12.533993499881 10.634424448618 11.451935326671 11.591444675082 10.772747346603 7.2504355076759 10.736865853073 14.124548425457 9.020605917097 11.813108465302 5.3932037164539 11.633218992283 11.381502523256 7.0127075139155 8.2354260502242 12.829141079764 10.229036521361 11.350732587721 10.384263515194 7.9384701268863 11.783239847712 7.8047476319927 12.689471130469 5.3669180775658 12.189057313932 11.214122662664 10.605245162735 12.025465827842 10.442547587525 11.900239909252 12.944914357916 12.795303872294 12.420884519336 8.3561530035875 8.5895528017806 12.432849182373 10.006586958111 12.83618102473 12.344927093066 12.222516895565 12.763975455547 11.332273143657 8.5098337226536 11.159046877819 11.783625611105 11.863675523742 12.06178674747 10.702522654679 7.6434403833274 12.211123919536 10.58796617315 13.254899681173 14.196293725379 11.31702633486 12.853831603494 12.557274467961 11.382575781785 11.584037725241 12.858425704745 10.299792447927 10.997394935747 10.028658397417 13.445668277803 13.451520469169 12.818309666159 12.068043596078 12.217620727061 10.986466843553 13.934223807554 10.9298630546 11.335465461793 8.9701298000432 8.0666790591543 10.973495525845 10.775673373706 9.0836184367106 10.87184483103 10.153400532123 12.51955172997 10.508558791607 11.155479103047 10.147045866811 15.665800041681 10.76425411956 12.702223077372 9.7045933115288 11.283262676982 8.0022528724833 13.140583729868 9.3498210868244 9.5148748531954 10.24921270425 12.300184897581 9.3773171516916 9.6120133083761 13.589856838125 12.108311436285 11.07548820191 12.821661128931 12.345816865884 11.844581085333 8.2787690221473 11.681275658423 9.7666222207868 11.763859006703 10.946988413001 8.7045056490752 11.931295523451 9.6174936963305 13.032556815556 12.123852961408 15.641809529563 13.389781998204 11.189063735937 7.7585484414091 10.320681448764 9.045849547416 12.076929840881 12.332534538845 10.892746720107 12.349617005957 11.079276374864 11.978467546972 12.106425292079 11.146949872239 10.403332655422 10.171505891906 13.752230285991 11.581783678522 11.31990908181 13.787889512894 12.439183889006 11.717443675877 6.2087984240894 9.8375152008329 12.895901945391 10.854035416475 13.093244946433 12.385600095813 6.7046112190168 9.2650432424878 11.51489132704 10.476102593538 12.597252436382 12.300370134604 10.274963240202 11.404143265838 14.002030460141 13.069220777684 12.326106496733 7.4040964122707 7.2969554249058 12.881471960672 11.974574768725 12.73062008528 10.592836806858 7.87786610969 9.0679684190828 6.175670419073 10.805090983648 7.2983320156273 11.264174779735 11.500011098277 7.1860308979321 11.757255495417 11.94089527831 10.32952454061 11.85752735898 10.307836176325 11.561924591707 11.550328548327 11.863191414468 8.4447787865061 11.549124695229 10.815563363734 12.38764086804 12.444356557992 10.682908005554 11.569724052892 10.032968507054 10.534555221012 10.772361562055 10.820230122571 7.2321640813228 10.956732689594 6.6066669925229 10.66868561679 11.111057644719 12.753299235142 11.646833915588 14.292739486472 10.340213890586 11.981559158893 12.027811283087 10.148061604076 9.376102683662 12.475144646409 10.824126091444 5.2014957844947 12.552064394378 12.051758258212 10.272039248706 11.416303003164 10.462474695935 7.4173965253906 11.094936659391 9.4245314630134 9.4856653015865 8.9334385617086 12.304075461991 11.343869954845 10.63195826127 11.387022816215 11.230780546446 10.59854927486 9.7269973946547 9.885475315091 9.6958679943161 10.336179206544 7.8759942735874 10.931711734177 11.30411417118 10.139712805892 13.041132398736 10.665368797451 12.31595867786 7.9851364893826 10.759027802141 10.408550234227 12.309195477951 11.119195847526 10.292741500793 12.682784506926 9.2733477435197 12.900505645169 10.285093869557 10.365997542378 9.9663445597607 10.736831749883 11.223299363218 10.990042631491 11.984273751417 11.923585422158 12.072200484318 11.51178559217 11.344673888633 12.892272445881 8.6930495736861 12.675241842018 13.269967049793 12.526880885467 7.6610818483382 13.257277219579 10.938403130459 12.642742506831 12.681939820342 11.396814445798 9.7678333638374 8.8747119815782 9.0355833165402 13.238520168187 10.568681287165 11.090386746064 10.783823369748 11.574786110649 11.731819671024 12.047433794779 9.119694680428 12.874607118652 12.606069323066 10.888550740213 10.069501023129 9.019665821755 10.969239804762 12.337804918495 10.522080895854 11.697374597377 10.550443021709 11.815414066884 10.610550517594 10.923205833305 10.796166737514 9.1215692362391 11.902975483876 8.6734046171135 10.02973810407 11.564902424756 9.5103127910937 10.909319275095 10.956936392196 10.349646962334 9.781934398393 9.6365142272688 13.372043462246 7.8102546642108 7.2441140167323 5.1785357076748 9.5310855552416 8.4116586636744 10.254040451718 10.455846508274 9.4324849781564 10.864057073651 10.334520112337 13.204791326159 9.3921785935942 12.096829357065 6.8099924652578 8.5057037185521 13.236833006772 12.827435072437 11.913718901502 10.453819040318 11.566614763674 11.488157621685 10.828379650181 10.137360028255 10.991569583693 7.3075871738762 10.31762469335 7.1283446687484 11.30013829784 6.7179304993725 6.3206028239364 8.4582795476345 9.535419975322 10.755322644045 10.812008294557 6.6043191540521 7.9352478466845 9.5893191483702 11.667894478621 8.1068675057369 6.8754531271482 6.5853362201898 7.4673363536779 11.968997437162 12.764636547454 10.795527187447 8.9265626475271 7.6839057723768 9.4309116911879 11.069980608201 8.750328164815 12.539184419317 10.688587638725 7.8969743590105 6.0980163461283 10.000735585986 10.150341183366 13.190500913746 12.251623283346 11.033751014806 10.266897477711 11.765982321109 7.5817349292802 13.41578325729 9.4021653470161 9.1749814317128 7.8515358836059 10.955329579327 9.2555080859601 12.118449366727 9.3388940841911 9.2528946625544 12.2816577253 10.320190829904 12.336425034954 12.449914961062 10.712739135936 10.423827899834 7.2367117291034 12.250607236987 7.8441565459472 10.685178116186 11.244316976309 11.087128675551 12.560073627223 10.013630018519 10.932136667454 8.9381985172834 10.505489101359 10.465340105266 8.5150561377004 8.129066871521 6.8786510249979 9.1718432520154 6.6241420008543 11.735278508759 10.117908271129 8.4459139498002 8.4590356137743 10.985961262389 8.1382820479564 7.4838426711571 9.2480780531931 7.489939366562 8.4370405400672 12.169298901601 10.534659486415 10.480760502151 11.049211741844 11.115765963171 5.8156895349084 9.3124819761566 5.4962913042415 9.2773913623782 5.9903099685376 8.7453294262054 12.483244467199 10.613090379475 6.7520284463904 10.625349271461 4.926245913923 11.471766941033 8.2723521159383 9.2647592313447 12.651630715002 12.120778297428 11.446952743829 9.4270212983766 5.8958988967615 4.3614377721211 8.9023585595827 11.086265563165 8.5820580797181 9.8764918197645 8.00337098207 10.385330574332 8.9300622022865 9.992751044063 9.332580196152 5.7344439998317 6.3377169826122 9.7845633747 6.8465367780495 5.6380173199882 7.1665896075267 10.462453933664 7.2781152607879 5.7884633748374 4.9129407665692 11.280049468029 8.8436031823208 10.258952970939 8.8435508216494 6.2980774546825 8.5985380435461 6.4075941566257 6.7024378623089 11.57677498988 8.9915020668302 8.7989286663398 9.2942080922102 11.60266837753 7.8040134025295 10.474096303319 5.3593269653982 8.9976547812907 13.445774743052 12.082033368047 9.2117077565998 6.8670060906743 5.1292759933264 3.8770131031312 7.991593825031 11.078738084572 7.9380622512797 7.3784000111104 6.1831980604633 7.7124581263024 8.7234074203171 11.143379340757 5.8769660667673 10.137081171211 11.2098901167 4.3635403119677 9.3456438519773 12.720602972329 11.380882553303 6.132955068297 8.6616469698341 10.113675508429 7.3838060249829 6.5819863094066 5.6170923386464 10.958880096934 10.582620366333 5.8087818643855 8.6750734526328 9.9247232519057 7.0039325240014 6.101743211121 5.3238832161848 10.858820800465 9.4092209325438 9.1895637931657 7.9695580599784 10.420203760053 8.7709218884816 10.106564600191 7.7877362067758 10.053553641966 10.916917007877 10.067906868506 5.2609052600996 3.3740053772224 11.495844925145 6.0630458098768 12.629152575555 9.5503179065409 5.9485895745664 9.8842472350945 3.9196693739535 7.6133678490787 3.3853118385008 4.4875130531049 9.9128119575896 6.0142146455146 11.345070561292 5.8034579873249 10.63258166208 9.5988498317612 6.7230834880154 10.04331598144 5.2962906012315 6.3088046261677 8.2477636156609 7.0473269121562 8.5007962718002 6.0245037340569 7.6367473065168 9.923312643539 5.4766785553077 4.6958362284197 9.2858454000224 8.0448128118614 12.693992082981 8.3507830928281 12.032492842802 7.2833374471556 10.09043447074 10.261080079201 6.4916483690831 4.0912001273158 8.6802781187948 7.5273328242401 7.6279736711498 7.7481227833398 12.133432552254 10.411918182798 5.3234222684451 10.033231621016 10.879833068638 8.6248080527939 8.949210320006 7.9149035561847 8.4875500839061 7.4709043982006 4.1385676916144 10.0368524913 4.2598570488811 8.3074142030513 9.5028040372764 10.459793053751 6.5414752566247 8.4934791059493 9.7162873018051 8.6841730949746 8.0319248354954 6.7441041231072 5.2500491797998 4.1936088863326 5.3845969039967 7.8441773265569 9.9859855943184 7.5030579412358 6.3042704915328 7.6101511853065 5.8806856924607 12.654506331304 5.7199139990721 11.657789461708 10.468639673791 3.7055116558767 8.9540303872136 9.6975284611298 9.952953650747 8.7814955131297 7.4172951992644 6.28831949293 6.2169581447442 5.9990945671214 8.0626254754578 9.7324403111939 3.9896137140537 5.2024994939105 4.573295865821 5.6963175089743 5.0022734134099 9.2095446851119 6.7197349693316 8.7797211213782 4.718613377609 5.0184107720065 5.8987065075638 9.0157369996535 4.3904069773118 4.1949949898895 6.9809014494177 5.8154611613743 3.553662596867 5.9854882572653 11.669691222694 10.080337915911 7.4389355871897 4.7291502854038 5.4705778586614 4.6279812073873 8.5583733717011 7.730828750979 8.1867549345844 7.226087006084 9.9531475561305 9.8670199747696 5.5993283695265 9.5806393523263 6.0433136264808 9.3679155023976 5.581774656336 8.5249939400901 9.9814383990009 6.9818082807227 8.6174628493793 8.0227525919467 8.6675629596051 9.2527895224317 9.4935160656518 7.58656553962 8.8184487537636 4.1654516102947 5.7420974399346 9.863782674762 4.1289301943323 11.108532648191 7.2615737152319 6.756731054417 6.6489520794825 7.8228890649007 5.8092881712288 5.004947746009 5.0253447734553 5.0391843235207 5.0894141384444 10.266179441673 13.810952354854 11.819516218295 10.761580497736 4.2973596028698 3.1618251684965 5.7468418431052 6.2563137186683 6.736794752337 5.7352646876128 6.3110912864397 5.2531559586676 6.6899594252432 6.9874077346656 6.7563981327785 6.5360224601291 6.8460126521609 6.7066374079904 6.1665122989573 4.817490344378 8.4576439649076 8.2011011103724 4.6804471224667 3.2964648164822 3.2611081711545 3.6733245828811 3.9915345317886 7.0452630630191 6.5698205829536 8.4963398574809 6.5027151763241 13.420475808891 12.479876790327 3.9677758667432 4.4220403663563 9.6508839228183 5.8160418784526 3.8727624602213 3.8894440855884 5.4108777750447 7.5088971659684 12.249639015922 7.3856912006162 7.400031633826 5.8436310613771 5.5853349943126 12.195725962466 4.6965536209481 8.920417794933 13.635964721175 5.9254767362233 4.1767423800158 9.5374191314062 9.2946935349393 5.3394676907037 4.6295389566841 4.5720622285864 6.7963348723016 3.4233818883441 5.3302764306677 3.5393568985853 3.4967903382139 4.0804757644033 11.08527384127 5.0696852162256 5.6724701229736 4.9022836744764 5.3270776686892 4.6375410810614 6.2659629398664 11.599460536822 3.5413973372729 6.274130595859 3.1503409164656 3.7713866554584 5.1975513767879 4.4936258824788 3.8672444492859 3.5939731000212 4.1298197535907 4.2606075207849 5.4561231758556 3.6729950843444 10.394670002894 5.2288666442158 3.5985510239262 4.1029103592065 4.936199754476 4.8302707804013 7.7461737296332 7.2726549303575 10.363404228138 8.7453832065575 6.9222816025453 8.0171601126114 5.7824230176052 6.9031114530414 9.161898815252 8.154409051754 5.2351002412487 6.2388205908999 5.8447596426146 9.5400345780031 7.6886039374247 3.4586305839809 4.5241301061138 5.2877651983176 4.3308628202728 4.5006625476891 4.0098766165661 4.1415082574823 3.7185051957584 4.520525169751 3.7834545163771 4.5102371327552 4.6208401125303 12.010153067031 4.4948165340888 5.392492120517 5.240580457952 12.248360453437 8.3829548775137 3.4853658288686 3.4524875229498 3.4650291174204 4.4101184311108 5.0051561822732 13.998051723789 3.7467932242887 4.2377173042998 4.4391008891617 3.1850100211385 3.7298152442824 5.1442113882928 4.2385086992991 4.1144883143071 4.0741706223902 4.2206408758054 4.1187598176155 3.5652685397213 5.1171195578193 3.4549131984259 3.6795332133925 4.339814732425 3.4445568178584 3.3412000927722 3.6963640210291 3.3564212652029 3.5811002299414 3.4601502859863 3.5635341841096 3.522658642958 4.4831678847156 4.0666033430014 5.3878900944665 5.7595078965119 3.4054782851716 3.1796915218376 3.1530473755814 3.5371707310663 3.0924223432389 3.2002364172925 3.3122055545833 3.2551653635104 3.555719909999 3.8496126293243 3.3984453955559 3.5995807807943 3.3214476470687 3.3765265928118 3.9033439894429 3.8827136236808 3.301139177813 3.3170393231434 3.4251724162707 3.2303295641856 3.2737009988063 3.3522729005883 3.3998734115501 3.515615580767 3.4492912385641 3.1389660719289 3.5823808697281 3.2053288143894 3.0844498644806 3.2251374649448 3.6005447190062 3.2430627424256 3.1292495700269 3.2630583073152 3.2861561288867 3.3394927008323 3.3688182228018 3.4016920858908 3.3126970985362 3.2563352160546 3.6278937959912 3.0960397790637 3.599381058651 3.2605716267903 3.1956561327474 3.2873268793539 4.0116581065657 3.342238879917 3.1734907713448 3.2446054965098 3.7635727669985 3.3988949883892 4.170001007897 3.2575541619355 3.2440903304962 3.164869656985 3.1635718637373 3.2767680689077 3.3346801880366 3.6325302039056 3.5343925458896 3.1237424563278 3.4233490791345 3.3402505500653 3.3014559267605 3.2658238103693 3.3786391278025 4.0583428999673 3.4368840108135 3.3002129485057 3.1689118183997 3.6869485083571 3.2641632013962 3.6592916070244 3.3751652926303 3.5727858876608 3.1018774730759 3.4093744570406 3.6668137369071 3.1797654047808 3.5483270474412 3.6722882931643 3.4311235640422 3.4426327922245 3.5016398772274 3.7043711602893 3.6164522914487 4.0602014281768 3.5178738282848 3.4060547611268 3.3263913277956 3.2151141609837 3.4243859068081 3.4251151742109 3.9696127129385 3.9017049744302 3.4642217141596 3.7332232328603 3.673221805204 3.7077653034162 4.2653157158528 3.8220775523741 3.5557541438054 3.069488590656 3.511863034664 3.6459065232383 3.3642714109749 3.3559678946163 3.3715406390688 3.8858219322844 3.4360436903584 3.6045981454706 3.3554587456559 3.6730877287969 3.5954943712604 3.9060213079597 3.8366225461772 4.2031801754802 3.8287258380359 3.7945219824324 3.6887209907214 3.8008276748333 3.8730033443868 3.757969872406 3.9711768338766 4.0261704889455 3.9468847740688 3.5979668062964 4.3193064225102 3.775205208877 3.2983325274911 3.6291766377675 3.8629688475905 4.1372482194096 3.8591454337004 4.0044716481884 4.2616279715575 4.2242689171483 4.4298552206049 4.4105023361854 4.2321506275243 4.5249164364177 4.4364683787624 
SCALARS 248.00_0.51 double 1
LOOKUP_TABLE default