# vtk DataFile Version 3.0
d-2__ created by libgimli-v1.1.0
ASCII
DATASET UNSTRUCTURED_GRID
POINTS 570 double
14.5	0	0
14.25	0	0
14.386963504964	-0.201738469428	0
22.399299936458	-0.310870122736	0
22.129824335287	-0.229914148082	0
22.126320781198	-0.518791771445	0
8.472303742627	-0.591754876635	0
8.780507935475	-0.76092407121	0
8.82173151259	-0.349253271447	0
18.663262297679	-0.667179415955	0
18.934786529245	-0.453308328646	0
18.636898038907	-0.29588182328	0
4.016904362632	-0.85330676142	0
4.076038737616	-0.331410355179	0
3.713721571226	-0.470767763626	0
1.89953779852	-0.269343012166	0
1.633800503821	-0.203067612233	0
1.644492760828	-0.441295523531	0
4.368408037607	-0.250833874131	0
4.337474161742	-0.544420985055	0
4.67745607622	-0.378433532554	0
1.406172533733	-0.772361039307	0
1.913288206557	-1.218576310882	0
1.90687689783	-0.651895683444	0
2.5	0	0
2.25	0	0
2.347047126858	-0.185539804102	0
1.374000926997	-0.300418771701	0
1.25	0	0
1.114902662369	-0.201591505098	0
1.067401015567	-0.470108640981	0
5.75	0	0
5.699780065382	-0.324747799653	0
5.924584257371	-0.172748359932	0
0.883560935405	-0.231136840652	0
1	0	0
9	0	0
9.117836368049	-0.253904480787	0
2.625577516194	-0.346770599322	0
17.859079774019	-0.943547525024	0
17.535029634209	-1.703182852412	0
18.338018094476	-1.366069799339	0
19.932263871771	-0.826489183604	0
19.881635677668	-0.346204516721	0
19.622287080959	-0.573770479943	0
1.5	0	0
1.75	0	0
23.25	0	0
23	0	0
23.109690227386	-0.220340974338	0
2.75	0	0
2.142562771237	-0.172460438312	0
2	0	0
23.332392704446	-0.202507275941	0
23.5	0	0
19	0	0
18.75	0	0
18.888143078348	-0.195773419804	0
2.90152418742	-0.185685383897	0
7.612175045312	-0.180627982114	0
7.527150943175	-0.401430797998	0
7.881917737402	-0.30462800112	0
25.630635194756	-0.512020961038	0
25.243766894324	-0.80097755811	0
25.758031115142	-0.952821630144	0
3	0	0
28.84859809239	-0.201276387394	0
29	0	0
28.75	0	0
4	0	0
3.835807353334	-0.199536243303	0
3.106904732949	-0.178783649348	0
29.25	0	0
29.092446172194	-0.305987136665	0
13.5	0	0
13.667851890428	-0.185102765244	0
13.75	0	0
3.75	0	0
14.407363653886	-0.441423674912	0
14.125469935998	-0.279652141152	0
4.25	0	0
5.061980176718	-0.407989246181	0
5.335512032876	-0.269401530321	0
5.113979852892	-0.173834924157	0
11.882046000841	-0.812345557852	0
12.478640631525	-1.146569360669	0
12.244190771573	-0.565936619511	0
3.633270844505	-0.195395238442	0
14	0	0
18.378272976509	-0.514977451159	0
5.5	0	0
9.619519097921	-1.16461851757	0
10.030576753886	-1.587265312651	0
9.961661342999	-1.070235523667	0
5.25	0	0
5	0	0
13.157975569138	-0.830425793913	0
13.83833027638	-1.238601004239	0
13.671302359608	-0.710707966059	0
11.325917093147	-0.8366783502	0
11.612143285947	-0.506264798476	0
6	0	0
7	0	0
6.83842404292	-0.188923754932	0
7.11236984822	-0.391746146843	0
6.631875629497	-0.169178192832	0
6.75	0	0
3.21002197083	-0.595267231049	0
3.445510026908	-0.608065324465	0
3.362318141622	-0.306501255187	0
6.120159502895	-0.164221934939	0
4.538525595924	-0.906226152762	0
13.233775457127	-1.737244787017	0
4.5	0	0
16.138065841822	-0.472802517973	0
16.126746690205	-0.221608117926	0
15.859319180798	-0.326402762318	0
26.080401003391	-0.227842452866	0
26.25	0	0
26	0	0
3.019224421113	-0.401469974918	0
8.234901607028	-0.35771789179	0
8.518285578354	-0.242327591839	0
8.328777073389	-0.153008859619	0
7.25	0	0
7.400656881666	-0.195280611572	0
7.5	0	0
5.385509485898	-0.709154879541	0
5.948697127931	-0.745234910621	0
8.75	0	0
8.5	0	0
8.25	0	0
2.214249105773	-0.404278959534	0
2.896561357202	-0.792481120253	0
9.25	0	0
4.920911116561	-0.192028847294	0
9.651670336652	-0.200847798694	0
9.849824537955	-0.19917205686	0
9.75	0	0
10.095049354068	-0.315754204277	0
10	0	0
3.25	0	0
6.738406513564	-0.710129601907	0
7.121614580011	-0.943026074581	0
11.345829942703	-0.314788260019	0
11.25	0	0
11.104427225455	-0.188863495516	0
6.052412255932	-0.372556729023	0
6.373371846535	-0.274163514827	0
10.25	0	0
10.380281579003	-0.241092027437	0
10.5	0	0
10.75	0	0
10.909079077441	-0.189427130481	0
11	0	0
6.25	0	0
6.5	0	0
4.75	0	0
3.5	0	0
10.672815698565	-0.318467932684	0
10.772487906066	-0.787092734739	0
11.020900486567	-0.439266778492	0
8	0	0
7.75	0	0
11.5	0	0
11.619450354737	-0.231443672836	0
11.75	0	0
8.139317726831	-0.163309591658	0
12.25	0	0
12.158949464947	-0.235415698299	0
12.412455385193	-0.275030800337	0
12.929165084344	-0.221336108042	0
12.686337592177	-0.258437422252	0
12.900449535554	-0.462768612232	0
12.5	0	0
9.405755833308	-0.325979504745	0
9.111697192308	-0.594170467817	0
9.457257345083	-0.753685223931	0
18.101369157139	-0.618560521812	0
18.336839281097	-0.861122419318	0
10.385948631267	-0.570640149046	0
9.5	0	0
13.411260455969	-0.342646276848	0
12.643108055516	-0.590179775368	0
13.137744715761	-0.195204172124	0
13	0	0
21.25	0	0
21.358341816502	-0.326561417551	0
21.5	0	0
13.816492716597	-0.40394453634	0
20.25	0	0
20.423452336785	-0.313445603959	0
20.5	0	0
17.789350393153	-0.390447709085	0
17.987794057246	-0.401472255242	0
17.881276545163	-0.206424156589	0
19.564465692234	-0.270867872644	0
19.290725118801	-0.49926248604	0
16.392319441256	-0.29915360323	0
19.443730892406	-0.923508713428	0
20.457987075478	-0.803203365193	0
20.167450719332	-0.505159975143	0
0.103762538371	-0.253013629949	0
0.267057015134	-0.483604909932	0
0.374713194419	-0.2320817565	0
13.25	0	0
17.415572543912	-0.230682214253	0
17.5	0	0
17.25	0	0
18.108153655084	-0.208141099276	0
18.25	0	0
18	0	0
15.75	0	0
15.544586046819	-0.246453491997	0
15.122708481244	-0.193620038745	0
15.25	0	0
15	0	0
19.75	0	0
24.149237782749	-0.319013340846	0
23.842766599446	-0.577371105011	0
24.183995039967	-0.73159476451	0
13.871646321742	-0.17394291424	0
23.862588150518	-0.245417872715	0
16.84024277193	-0.203626765466	0
16.704049384397	-0.435508179396	0
17.112673188265	-0.38804641709	0
24.75	0	0
24.832880292394	-0.290571430318	0
25	0	0
16.40158555625	-0.755912194683	0
16.850299990829	-0.757941865332	0
17.75	0	0
23.567455674596	-0.325197491724	0
16.25	0	0
16	0	0
22.645812614293	-0.197864648876	0
22.75	0	0
22.5	0	0
16.75	0	0
17	0	0
24	0	0
26.914424714815	-0.337869958787	0
26.621963281699	-0.624626679172	0
26.977877660759	-0.778408201088	0
26.622424322919	-0.264588309935	0
19.34462271879	-0.199329831305	0
19.25	0	0
19.118057075065	-0.225686869553	0
19.5	0	0
26.75	0	0
27	0	0
27.5	0	0
27.604422363523	-0.298869962794	0
27.75	0	0
17.650384190064	-0.227839036584	0
18.343198956448	-0.236734208617	0
18.5	0	0
24.25	0	0
20.143897114391	-0.233773711865	0
25.5	0	0
25.25	0	0
25.344389320279	-0.31693710653	0
21.059546193318	-0.24845941382	0
20	0	0
25.842927934822	-0.248287716678	0
25.75	0	0
25.613904645132	-0.216025146631	0
21	0	0
11.763551406169	-1.481607093928	0
30.981104050195	-0.5526690913	0
30.873880294509	-0.217692518774	0
30.706626759758	-0.34945139905	0
20.75	0	0
20.85240828135	-0.178025243856	0
23.75	0	0
20.66289882074	-0.189089155251	0
30.204950808504	-0.791758966623	0
30.715535843381	-1.149995259266	0
30.543724897762	-0.572259098027	0
30	0	0
30.180216671806	-0.343473673313	0
30.25	0	0
23.229584388362	-0.458653998547	0
29.5	0	0
29.623391954444	-0.322069028408	0
29.75	0	0
21.618913855927	-0.233585823579	0
21.75	0	0
29.348490380579	-0.521100538161	0
29.36294710412	-0.230601226356	0
22	0	0
22.25	0	0
28.25	0	0
28	0	0
28.129259193923	-0.314252106503	0
28.44374413871	-0.484576386004	0
28.100199615755	-0.812038297775	0
28.649230646972	-0.871769248311	0
28.618403654115	-0.227691192115	0
28.5	0	0
28.387848605749	-0.205892081491	0
29.054768525933	-0.708603081552	0
29.344906532636	-0.846887322836	0
26.327430876245	-0.35930637997	0
10.349120516034	-1.04150119828	0
10.894920134778	-1.514321070539	0
24.59640839418	-0.191760546865	0
12.75	0	0
24.5	0	0
13.102881121377	-0.411296235356	0
25.099388239946	-0.214879887129	0
25.97986022697	-0.52841375324	0
24.398993403151	-0.196312410538	0
17.860840746535	-0.577367743328	0
17.566481510048	-0.529340016102	0
26.5	0	0
16.637148248735	-0.188015807345	0
18.183918302467	-0.396443618316	0
27.159348252167	-0.205297590358	0
27.357530053515	-0.198815038154	0
27.25	0	0
15.060354649709	-1.112587998155	0
15.51532665618	-1.043792149387	0
15.178150912169	-0.713100616689	0
10.051363365948	-0.719159376333	0
14.661248691948	-0.27865166374	0
14.75	0	0
27.868836823455	-0.217301839861	0
31	0	0
30.75	0	0
-0.020273477909	-1.415389842481	0
1.054972770973	-1.487485199502	0
0.512583677021	-1.0438154777	0
0.75	0	0
2.361419414365	-0.794513604096	0
29.890297721653	-0.2433406165	0
30.473599299501	-0.238575611274	0
30.5	0	0
30.660802173874	-0.161931182737	0
28.783812899585	-0.467926883932	0
4.937022539393	-0.72440615077	0
6.696914540879	-0.380672503721	0
7.434272221796	-0.695675918868	0
15.339606453815	-0.166204802571	0
15.281953315711	-0.388999642276	0
11.893544445085	-0.335972898148	0
12	0	0
9.753796445798	-0.478866225926	0
7.720012958977	-0.638314519759	0
21.871398197179	-0.313006985103	0
21.615176662754	-0.521922347305	0
21.856785525528	-0.665128848631	0
20.792152536902	-0.448319093295	0
21.109577821412	-0.527879642114	0
21.360297691811	-0.734200004244	0
15.547854961707	-0.580173571081	0
24.496861814148	-0.467031445896	0
25.067351422649	-0.463427753535	0
24.81263825963	-0.684738154192	0
22.865620821195	-0.218348593093	0
23.443705587002	-0.773171720633	0
27.277617447467	-0.489224417775	0
27.863714790534	-0.471681393437	0
26.239117668995	-0.863279739365	0
29.896797054636	-0.547765129844	0
29.612773839625	-0.699757135752	0
29.867172666547	-0.87444432816	0
29.610354212963	-1.521444655905	0
29.59548165142	-1.071765512911	0
29.115129171034	-1.220660174798	0
31.345359428525	-0.458952144926	0
31.144859415042	-0.241304201582	0
15.919565295974	-0.746550096707	0
16.063006820294	-1.289595303187	0
16.5	0	0
14.900855313538	-0.178071167744	0
14.161016743654	-0.72559708689	0
19.011498044983	-0.834202892304	0
16.760433281999	-1.263698818643	0
17.280361389946	-0.931704507314	0
-0.627742252535	-0.296285438777	0
-1	0	0
-1	-0.5	0
0.625738545692	-0.228405936136	0
0.5	0	0
3.313957665883	-0.865581185485	0
3.619156095452	-0.800599314657	0
[...]
CELL_DATA 986
SCALARS 124.00_1.35 double 1
LOOKUP_TABLE default
835.71514228303 424.87976203468 288.2991010979 365.42822700615 431.34773332833 550.84336019044 655.08593007055 158.42606799936 665.2878438936 811.42015652977 539.66254671827 655.74664851819 640.00327830869 661.48118081727 736.57459009877 851.33183735258 72.453156768685 255.27235421847 609.50619981962 738.37392534749 780.63817098891 646.82299771385 693.36681485162 740.06783957311 536.72202998484 716.75697963596 537.02342964043 225.36204869421 700.4125208288 937.91918440343 858.81393286235 773.47703906969 688.60980354623 787.65761969681 803.59832699541 670.23428865402 903.79287749378 702.23609042401 227.52465954456 772.93795766039 941.90065128718 369.52523695586 708.48146771621 99.009615361777 791.03406209175 839.62427299381 167.75837813253 291.25465393675 671.9459590771 1033.0203963872 726.44509145237 882.97463868024 367.91623727535 694.39251529808 380.09633757182 671.82163848454 88.944858940654 959.81857341747 545.67458338097 884.30462555168 760.60850185605 616.18801160649 534.4365002159 700.98313853113 639.30349981744 604.94412434075 322.87083817279 443.62213018761 612.42307293395 643.18442767216 616.19744757256 673.91675977083 992.17932714508 662.76467489929 641.992292842 412.52867695442 597.44017686367 919.12167877843 550.22087887125 632.2875255779 851.09435363648 216.97918597946 613.19500291774 604.02053699047 821.92261094889 650.55245554549 647.40821510729 733.08843773883 632.28525686264 547.72133411669 1166.0496336622 790.87182144705 812.25117629878 687.31669589733 401.26490882554 689.47225813278 463.03164873849 575.00213661889 654.55790497666 674.76369414443 489.30238982433 810.84879605495 533.82276039421 504.60918031345 347.3293002949 263.07889310659 511.34315482342 687.15893550072 345.21618714801 612.87806465801 473.67007262746 662.56051823688 490.57412628665 695.35898834765 434.36713304621 658.8769710264 500.31443587377 835.21951722238 348.35408718003 596.48462260798 210.76522072759 743.42393122347 304.06903627444 407.15469820024 490.37069610704 594.57162403085 424.47053763269 369.29628680579 610.43136116441 778.99639883539 518.97070875243 787.1918649931 806.89895921889 585.23778585243 406.8248897888 663.95588277233 629.23465185324 477.59734925354 733.59127966265 258.41307123181 732.83585514262 562.16494765806 1069.4508508677 738.6769844331 757.19888021607 632.31492087874 861.62956238641 346.3240272266 484.66487251089 546.26217869408 534.28208246459 519.29099784254 841.62032545269 556.82159589746 792.52430557 620.52566664207 676.41819604379 600.38284403323 1028.7452326797 792.68662549398 607.32779142576 920.41724982575 570.09868014904 641.52718527163 785.29914018261 603.37560323679 144.9116379971 520.80495424114 885.0287211002 700.37182068346 718.68540229935 713.49210671129 255.83937007509 524.99428743032 605.34994296198 676.44659527767 623.66996634806 626.79221717336 588.43289894415 697.21595367411 538.56963521055 1083.6578114369 710.2322248766 299.87862808375 163.06185485379 569.10380211328 921.67327272594 530.66849589945 598.20965146245 332.22099116965 536.57868049859 136.80227100827 672.57306774123 193.53638007685 770.38189415333 680.58879762219 212.07913864777 552.77160645026 912.51129456763 483.84987965733 781.82689964924 642.62223847172 474.87552476658 838.04193656017 637.48601455352 268.5174775435 685.99712469591 526.01080649636 650.50923789246 844.58600199151 610.69222152363 498.89224479995 966.01930143009 517.98586050524 864.6859945975 965.76831225677 165.60470803997 851.46404439218 158.59802421276 764.18057588144 534.08962986372 946.30882513764 585.35811364798 756.22194957992 773.06672475655 650.02908389816 827.1424407578 831.18895153071 429.15931833446 633.41208465638 562.54572188095 98.439025172656 708.74138446194 685.04919923161 517.11078940604 833.16725960794 560.01543758545 294.04502501235 721.84049908861 453.18038963088 535.38168611917 485.34392753378 695.01119567404 790.69195463234 585.49910106513 980.46764592994 783.99999155708 569.78320284185 658.22370671095 550.68592067602 667.96319815242 643.90769976319 351.5646904386 721.27847730518 531.75762101242 704.03061788748 651.08845424574 611.94874826558 633.24805906805 334.86254863567 693.13891859649 785.18357739789 1052.7741621647 797.84843062341 582.39299567687 620.05249346444 317.8845154551 700.23910466092 984.68593742082 719.1642800359 507.63701241579 422.87937229444 646.39763553488 656.25320174541 685.00940911691 577.74078503494 729.17491670615 509.95559483838 500.53253534023 483.62434727172 300.89039686024 478.68930298655 538.12771668876 590.69234661953 232.05008736493 632.20100802811 528.34636121615 645.0285534176 553.02459901875 546.98462714683 361.79095691103 305.80224569063 280.1150816982 688.10237314973 432.99243252912 789.99128693703 428.44099356245 631.76769358242 858.06763713898 561.68188674979 257.92195504551 718.16057323005 608.41350022246 437.97050430685 413.59651873976 280.60283846179 477.09527464827 728.47434972156 627.70956093919 799.90930561506 590.19118240722 848.71018867515 784.06655012095 724.99003662365 569.31824086839 416.56431016515 769.30336853489 373.48159822928 668.44589780881 841.92796911842 634.17492228244 880.74496090041 852.6757491582 722.16696961396 567.63396105404 661.67043213192 812.09175698524 361.47381865341 304.0567857071 117.50916772814 441.40837555314 425.10414846917 560.5473529559 662.25818272383 548.43444685764 684.14858418894 546.72448826696 1112.6377821784 496.18128370557 700.57393029829 138.00108426721 245.94521858058 962.42199046603 774.00036257533 648.43002858867 492.40723626558 609.50853286528 550.28592052548 505.90672616199 490.00007099017 563.63033705642 173.30011122133 461.61314925909 164.86893874851 571.2050253712 145.46311922654 169.76505697672 352.45142701759 261.15121143804 548.12569366913 771.49491843712 229.8219954429 316.25766742066 507.59684111504 1013.7842986092 433.97307223559 269.26617145165 159.74587337216 181.5633677498 578.40282236377 662.38505631328 813.38100229909 407.12322241241 254.79316637846 460.9904413195 586.97337236993 369.72775838612 653.29689371363 410.73832254679 251.19779028371 98.728308761273 467.03840100825 429.2930955788 672.07092611953 609.51778515261 494.97003969542 458.44864968623 553.73882448986 221.30424242144 587.25411562973 369.29276974752 357.69114031287 246.14114874626 524.79369245233 370.92404912853 619.95338116668 368.57826842869 294.23570309305 645.300149585 517.75083249945 769.58327140787 661.44256275771 454.36661742527 380.19522028326 263.58850648902 814.15198118125 266.69269003732 472.08121234594 449.27766141584 655.81232905548 627.96303224784 400.68489449432 565.75713524534 404.1597326052 608.49521998494 841.12432341066 433.93076160651 366.93973819198 251.81166289603 261.03015400501 232.63264582366 712.36867969727 502.42296449584 447.42747258769 459.83359348651 761.04713921246 377.89125170875 340.84596045008 470.15873755112 303.1295949216 400.25285771295 796.29503195296 595.45258664619 594.78339423864 654.29332859159 625.50875509504 172.26953161969 503.39706043255 126.78559380076 534.86486732685 182.12964613664 430.27461012824 1008.934086873 737.00356469872 154.14917516757 504.23659076198 81.298216308432 517.07966481868 261.36174752624 353.49731497953 893.01428291318 662.85362644321 658.59286165835 355.667654155 104.94359567304 61.381241967747 282.26619929995 616.85865357875 399.52524606308 525.8696327449 290.66814850268 514.62710751118 384.14712419479 442.70399726915 315.45318847755 159.25916834617 180.8808001098 627.61637059562 266.62825176019 141.89162459947 292.45297933026 725.6622210059 293.86096980876 159.23151204824 100.74623163219 497.64172139395 281.93642062418 668.63903601091 363.3720246996 148.32733083461 353.26349216171 139.05427694868 167.67326759149 525.08305293326 285.58868291294 355.13146125174 379.92703067152 515.25229020273 200.97265656213 496.65741024331 83.013800525358 283.21326857893 1147.5428704443 539.85527409806 370.74846304986 176.82597639796 69.115154818883 49.724972455821 249.17270831633 527.26411995822 253.14066259477 200.75936715313 137.16850503799 172.46406524975 282.33695872107 502.26783614907 93.876264014648 440.15471012296 510.0736003791 56.237145708145 305.95032908624 642.22083366323 636.09842090513 171.0727419165 384.20779291492 663.37761748282 263.10105742631 207.75474460759 130.93714344225 608.54871707811 521.13625360576 165.37504683679 473.81254392253 597.99573304852 272.16574703098 195.21927079276 131.37616193667 640.63208114626 511.12416835381 355.16437997794 394.88953698498 546.95437901251 444.99643786464 564.62457263588 373.46869437995 494.2093968893 760.19692184481 609.00376835113 77.868480524512 43.611409313792 576.69688911032 117.50563184474 828.23797819637 315.14817904372 99.829311972521 407.32301634349 45.624664014827 194.22012367682 43.243270939327 57.279372520281 409.14903913687 110.26821288386 368.97602118447 147.11078447949 514.87440017314 404.50350280192 172.57749693446 441.73011691869 108.5840403701 155.52958743803 413.50378431178 269.26910895228 426.71805950341 167.54136525084 194.81950881238 361.06942023709 112.10476098316 70.692239405682 472.14041910619 296.98916012373 758.70738065999 231.1442690395 716.52866521987 187.96775779239 381.71554385142 492.45707907025 133.81199190989 45.57507384378 345.00092285806 177.00818656323 176.27233744665 178.4741160816 642.26280375861 364.77095248496 97.273135961751 386.79564599838 589.1623547849 327.86605446872 412.41594300294 295.02896913821 478.45145757924 332.90127416731 45.537314942534 285.09098781099 55.941810943515 228.73175531888 354.80989724336 361.13961043473 144.23226644252 257.33546222519 394.46974282052 313.94807283007 278.7344923987 233.85443551202 117.66217545647 64.451562012074 133.60193137075 212.49422890252 370.90480637531 183.64434569584 118.20831970815 250.56398968056 119.65244813601 787.04226155509 95.860888055551 528.4735058391 476.85544109865 45.087251321449 346.36505452015 378.7525751023 360.27709568563 314.15053014045 208.4384719891 173.31492210737 165.38546655769 183.9110244339 342.63279850082 316.75321121638 52.987423386579 110.44604866236 79.097086971575 113.89910521334 79.800447307494 348.03336083842 157.50914135979 277.56385041386 64.944541875809 81.89659554987 112.18321985531 372.83244842868 48.945653349601 58.514648496646 168.49541808739 104.90552522549 43.464556569213 99.648156226911 623.05733446326 474.33427496237 243.00787110369 83.040430702334 141.78309701671 83.539278374086 308.73662250953 327.53492573042 314.99217159586 284.97081450019 422.52255332948 467.00064181706 162.77381720264 404.25080618618 196.96963365337 397.67675434892 133.44384485192 325.99055935312 445.04650651148 206.92956204893 315.5946464418 276.45729005345 315.58431707443 366.29633981094 381.7583175865 243.09932581623 326.82748139927 45.930058958268 90.590333625688 450.10095063276 57.014020507275 467.79117225993 165.52233900375 127.63341925381 125.24431466661 176.43573631573 149.274450732 92.730926293187 115.78420088586 109.40748386134 117.19833569145 504.76423553186 692.33105532865 617.91496663011 478.17447097257 78.364781333464 41.734598042144 119.64737288756 140.6901571342 234.81670344664 117.11067633464 210.67662896339 126.40308591746 214.29912760213 285.51939862633 239.09218824037 229.80041840027 232.39351748845 217.43307972303 183.26562695157 98.769014789095 300.77978858498 283.2244562012 69.449435440978 46.997073927635 42.399680613481 54.471185297096 45.687317564667 163.06890635952 117.58818940054 221.74476254374 150.30952320415 627.51722888618 546.57514263492 47.035737314789 56.91360934652 406.53362470717 157.61569882947 56.761537604091 46.678145544618 115.0014616689 188.63586061135 716.69170981402 208.31242055147 182.91913778021 101.08446038155 105.28364656151 652.96908795278 65.215355822635 236.23302146584 703.45579991244 102.52572178642 46.041510780917 376.86079367032 407.80048285137 84.409104768757 69.911481676473 63.137655116345 145.11012064124 71.245117050286 86.157338075015 35.527190637191 42.149300999966 57.71865708027 550.77430825054 71.141175999338 96.646725548731 91.101614701116 117.12038019766 92.964346226342 108.65091590337 647.77342972271 37.464951447946 128.77039349651 46.188546444196 48.698554340259 73.103573586872 84.744411525676 52.547234139481 46.693948872345 52.508194065189 55.017087985929 87.639534181573 40.983167993621 465.88448085473 80.202019671689 42.36104117605 54.500520635546 99.641254849644 74.837875434858 244.36572310282 221.95291128377 306.87262524126 307.03833487964 177.33131158891 241.08095424982 124.30586603687 162.83591280826 268.11798863598 223.62841390188 101.22230529626 138.9191141185 128.72004832294 270.12354154525 185.37709003827 39.880481777007 86.64365022114 122.65877666557 62.353954310017 73.38414575501 51.860694179056 57.378780996482 48.952035294745 79.719752617694 46.349913391997 76.782701426632 95.714200805602 620.97989435581 68.590030957599 88.762752070162 71.87662650611 720.8693905399 267.09749294879 43.924842720462 40.678580478709 43.388970065807 65.726427129129 74.517077001626 654.55462929354 46.389793681947 72.028953186146 57.99186936434 53.631167370388 64.486340442866 93.348690562814 72.616231812074 63.598392002366 62.46809192767 75.709613757392 65.020711444851 44.928952523078 74.38375243145 37.31081458068 37.967608930782 54.717435367526 60.705175209884 43.66121382339 40.455454481239 41.959067859702 47.303440579342 44.318899463574 44.043032351975 43.728296005029 60.812380539468 50.159904332239 92.479466638043 105.37127592855 40.612296586615 40.21594076182 37.388671056362 64.083165862286 38.484094022175 36.112259526626 43.559234417886 43.108793133037 39.802613599509 51.863244685075 42.768781373234 58.744766371334 41.723988040795 67.576515608148 49.045931630245 45.311514455636 38.56055431055 40.465369676252 43.355578265509 41.342784069914 42.813901681491 41.903749495063 38.363025485521 43.080342459533 42.922994031879 44.090302415745 41.49336212131 41.786347177165 41.936720178776 35.51032801537 70.025665339236 47.579053662281 47.390567239445 42.632038805354 43.807933446898 48.331339034614 40.387186044896 58.142037314123 45.527754073359 42.752179300036 47.686909008505 46.369413744078 42.880368546501 50.136933445419 47.62877129573 38.089690425265 106.14074544246 72.525473685857 59.192026329668 47.768805532876 60.345184165099 43.112546968178 118.69790952448 44.453867589436 50.405793732251 50.716992613873 49.347032870545 46.789781039622 48.691204868782 76.841521097008 82.405455118648 55.230917254966 45.770619277552 50.737487655183 54.834045736267 54.648750297725 64.067341198244 106.65361359527 69.454392102492 69.248864844395 46.149040044721 94.491298156249 53.957186619196 94.186281335625 55.34892331878 68.276466568016 49.768068757824 68.579687314731 89.405360199526 58.813238103198 79.226632529791 92.263840523418 77.659815414969 57.446357114524 59.23679358307 79.567730278424 81.594028738729 112.9328838786 65.948303329878 60.536682422399 69.923736959115 60.723118994288 77.98711518082 64.92537919204 113.79492270049 110.55031951338 61.692127062253 82.648290718703 86.997323027871 78.605874140595 124.58969843588 87.903887428212 87.920338948982 50.566026980109 83.354796476547 93.553363652795 64.598487358605 64.858782339414 67.007413121083 96.861076574975 72.210368075462 85.97136225359 64.263355692057 91.102359329753 84.768819574293 108.94342323702 104.519908027 129.24985703803 101.82700639479 99.785882764299 91.756591675537 100.58398729618 105.55004769641 96.436842638431 113.18147962326 117.99108114018 102.32893726602 73.480205787948 130.64131216704 91.958879450678 67.211133612874 88.928288339313 101.12569170076 126.75831859348 107.37202473006 117.61577344586 136.54153394104 126.3599000752 140.68448393144 138.76057450525 125.53933289458 147.01827722223 139.61171017458 
SCALARS 62.00_0.78 double 1
LOOKUP_TABLE default