# vtk DataFile Version 3.0
d-2__ created by libgimli-v1.1.0
ASCII
DATASET UNSTRUCTURED_GRID
POINTS 570 double
14.5	0	0
14.25	0	0
14.386963504964	-0.201738469428	0
22.399299936458	-0.310870122736	0
22.129824335287	-0.229914148082	0
22.126320781198	-0.518791771445	0
8.472303742627	-0.591754876635	0
8.780507935475	-0.76092407121	0
8.82173151259	-0.349253271447	0
18.663262297679	-0.667179415955	0
18.934786529245	-0.453308328646	0
18.636898038907	-0.29588182328	0
4.016904362632	-0.85330676142	0
4.076038737616	-0.331410355179	0
3.713721571226	-0.470767763626	0
1.89953779852	-0.269343012166	0
1.633800503821	-0.203067612233	0
1.644492760828	-0.441295523531	0
4.368408037607	-0.250833874131	0
4.337474161742	-0.544420985055	0
4.67745607622	-0.378433532554	0
1.406172533733	-0.772361039307	0
1.913288206557	-1.218576310882	0
1.90687689783	-0.651895683444	0
2.5	0	0
2.25	0	0
2.347047126858	-0.185539804102	0
1.374000926997	-0.300418771701	0
1.25	0	0
1.114902662369	-0.201591505098	0
1.067401015567	-0.470108640981	0
5.75	0	0
5.699780065382	-0.324747799653	0
5.924584257371	-0.172748359932	0
0.883560935405	-0.231136840652	0
1	0	0
9	0	0
9.117836368049	-0.253904480787	0
2.625577516194	-0.346770599322	0
17.859079774019	-0.943547525024	0
17.535029634209	-1.703182852412	0
18.338018094476	-1.366069799339	0
19.932263871771	-0.826489183604	0
19.881635677668	-0.346204516721	0
19.622287080959	-0.573770479943	0
1.5	0	0
1.75	0	0
23.25	0	0
23	0	0
23.109690227386	-0.220340974338	0
2.75	0	0
2.142562771237	-0.172460438312	0
2	0	0
23.332392704446	-0.202507275941	0
23.5	0	0
19	0	0
18.75	0	0
18.888143078348	-0.195773419804	0
2.90152418742	-0.185685383897	0
7.612175045312	-0.180627982114	0
7.527150943175	-0.401430797998	0
7.881917737402	-0.30462800112	0
25.630635194756	-0.512020961038	0
25.243766894324	-0.80097755811	0
25.758031115142	-0.952821630144	0
3	0	0
28.84859809239	-0.201276387394	0
29	0	0
28.75	0	0
4	0	0
3.835807353334	-0.199536243303	0
3.106904732949	-0.178783649348	0
29.25	0	0
29.092446172194	-0.305987136665	0
13.5	0	0
13.667851890428	-0.185102765244	0
13.75	0	0
3.75	0	0
14.407363653886	-0.441423674912	0
14.125469935998	-0.279652141152	0
4.25	0	0
5.061980176718	-0.407989246181	0
5.335512032876	-0.269401530321	0
5.113979852892	-0.173834924157	0
11.882046000841	-0.812345557852	0
12.478640631525	-1.146569360669	0
12.244190771573	-0.565936619511	0
3.633270844505	-0.195395238442	0
14	0	0
18.378272976509	-0.514977451159	0
5.5	0	0
9.619519097921	-1.16461851757	0
10.030576753886	-1.587265312651	0
9.961661342999	-1.070235523667	0
5.25	0	0
5	0	0
13.157975569138	-0.830425793913	0
13.83833027638	-1.238601004239	0
13.671302359608	-0.710707966059	0
11.325917093147	-0.8366783502	0
11.612143285947	-0.506264798476	0
6	0	0
7	0	0
6.83842404292	-0.188923754932	0
7.11236984822	-0.391746146843	0
6.631875629497	-0.169178192832	0
6.75	0	0
3.21002197083	-0.595267231049	0
3.445510026908	-0.608065324465	0
3.362318141622	-0.306501255187	0
6.120159502895	-0.164221934939	0
4.538525595924	-0.906226152762	0
13.233775457127	-1.737244787017	0
4.5	0	0
16.138065841822	-0.472802517973	0
16.126746690205	-0.221608117926	0
15.859319180798	-0.326402762318	0
26.080401003391	-0.227842452866	0
26.25	0	0
26	0	0
3.019224421113	-0.401469974918	0
8.234901607028	-0.35771789179	0
8.518285578354	-0.242327591839	0
8.328777073389	-0.153008859619	0
7.25	0	0
7.400656881666	-0.195280611572	0
7.5	0	0
5.385509485898	-0.709154879541	0
5.948697127931	-0.745234910621	0
8.75	0	0
8.5	0	0
8.25	0	0
2.214249105773	-0.404278959534	0
2.896561357202	-0.792481120253	0
9.25	0	0
4.920911116561	-0.192028847294	0
9.651670336652	-0.200847798694	0
9.849824537955	-0.19917205686	0
9.75	0	0
10.095049354068	-0.315754204277	0
10	0	0
3.25	0	0
6.738406513564	-0.710129601907	0
7.121614580011	-0.943026074581	0
11.345829942703	-0.314788260019	0
11.25	0	0
11.104427225455	-0.188863495516	0
6.052412255932	-0.372556729023	0
6.373371846535	-0.274163514827	0
10.25	0	0
10.380281579003	-0.241092027437	0
10.5	0	0
10.75	0	0
10.909079077441	-0.189427130481	0
11	0	0
6.25	0	0
6.5	0	0
4.75	0	0
3.5	0	0
10.672815698565	-0.318467932684	0
10.772487906066	-0.787092734739	0
11.020900486567	-0.439266778492	0
8	0	0
7.75	0	0
11.5	0	0
11.619450354737	-0.231443672836	0
11.75	0	0
8.139317726831	-0.163309591658	0
12.25	0	0
12.158949464947	-0.235415698299	0
12.412455385193	-0.275030800337	0
12.929165084344	-0.221336108042	0
12.686337592177	-0.258437422252	0
12.900449535554	-0.462768612232	0
12.5	0	0
9.405755833308	-0.325979504745	0
9.111697192308	-0.594170467817	0
9.457257345083	-0.753685223931	0
18.101369157139	-0.618560521812	0
18.336839281097	-0.861122419318	0
10.385948631267	-0.570640149046	0
9.5	0	0
13.411260455969	-0.342646276848	0
12.643108055516	-0.590179775368	0
13.137744715761	-0.195204172124	0
13	0	0
21.25	0	0
21.358341816502	-0.326561417551	0
21.5	0	0
13.816492716597	-0.40394453634	0
20.25	0	0
20.423452336785	-0.313445603959	0
20.5	0	0
17.789350393153	-0.390447709085	0
17.987794057246	-0.401472255242	0
17.881276545163	-0.206424156589	0
19.564465692234	-0.270867872644	0
19.290725118801	-0.49926248604	0
16.392319441256	-0.29915360323	0
19.443730892406	-0.923508713428	0
20.457987075478	-0.803203365193	0
20.167450719332	-0.505159975143	0
0.103762538371	-0.253013629949	0
0.267057015134	-0.483604909932	0
0.374713194419	-0.2320817565	0
13.25	0	0
17.415572543912	-0.230682214253	0
17.5	0	0
17.25	0	0
18.108153655084	-0.208141099276	0
18.25	0	0
18	0	0
15.75	0	0
15.544586046819	-0.246453491997	0
15.122708481244	-0.193620038745	0
15.25	0	0
15	0	0
19.75	0	0
24.149237782749	-0.319013340846	0
23.842766599446	-0.577371105011	0
24.183995039967	-0.73159476451	0
13.871646321742	-0.17394291424	0
23.862588150518	-0.245417872715	0
16.84024277193	-0.203626765466	0
16.704049384397	-0.435508179396	0
17.112673188265	-0.38804641709	0
24.75	0	0
24.832880292394	-0.290571430318	0
25	0	0
16.40158555625	-0.755912194683	0
16.850299990829	-0.757941865332	0
17.75	0	0
23.567455674596	-0.325197491724	0
16.25	0	0
16	0	0
22.645812614293	-0.197864648876	0
22.75	0	0
22.5	0	0
16.75	0	0
17	0	0
24	0	0
26.914424714815	-0.337869958787	0
26.621963281699	-0.624626679172	0
26.977877660759	-0.778408201088	0
26.622424322919	-0.264588309935	0
19.34462271879	-0.199329831305	0
19.25	0	0
19.118057075065	-0.225686869553	0
19.5	0	0
26.75	0	0
27	0	0
27.5	0	0
27.604422363523	-0.298869962794	0
27.75	0	0
17.650384190064	-0.227839036584	0
18.343198956448	-0.236734208617	0
18.5	0	0
24.25	0	0
20.143897114391	-0.233773711865	0
25.5	0	0
25.25	0	0
25.344389320279	-0.31693710653	0
21.059546193318	-0.24845941382	0
20	0	0
25.842927934822	-0.248287716678	0
25.75	0	0
25.613904645132	-0.216025146631	0
21	0	0
11.763551406169	-1.481607093928	0
30.981104050195	-0.5526690913	0
30.873880294509	-0.217692518774	0
30.706626759758	-0.34945139905	0
20.75	0	0
20.85240828135	-0.178025243856	0
23.75	0	0
20.66289882074	-0.189089155251	0
30.204950808504	-0.791758966623	0
30.715535843381	-1.149995259266	0
30.543724897762	-0.572259098027	0
30	0	0
30.180216671806	-0.343473673313	0
30.25	0	0
23.229584388362	-0.458653998547	0
29.5	0	0
29.623391954444	-0.322069028408	0
29.75	0	0
21.618913855927	-0.233585823579	0
21.75	0	0
29.348490380579	-0.521100538161	0
29.36294710412	-0.230601226356	0
22	0	0
22.25	0	0
28.25	0	0
28	0	0
28.129259193923	-0.314252106503	0
28.44374413871	-0.484576386004	0
28.100199615755	-0.812038297775	0
28.649230646972	-0.871769248311	0
28.618403654115	-0.227691192115	0
28.5	0	0
28.387848605749	-0.205892081491	0
29.054768525933	-0.708603081552	0
29.344906532636	-0.846887322836	0
26.327430876245	-0.35930637997	0
10.349120516034	-1.04150119828	0
10.894920134778	-1.514321070539	0
24.59640839418	-0.191760546865	0
12.75	0	0
24.5	0	0
13.102881121377	-0.411296235356	0
25.099388239946	-0.214879887129	0
25.97986022697	-0.52841375324	0
24.398993403151	-0.196312410538	0
17.860840746535	-0.577367743328	0
17.566481510048	-0.529340016102	0
26.5	0	0
16.637148248735	-0.188015807345	0
18.183918302467	-0.396443618316	0
27.159348252167	-0.205297590358	0
27.357530053515	-0.198815038154	0
27.25	0	0
15.060354649709	-1.112587998155	0
15.51532665618	-1.043792149387	0
15.178150912169	-0.713100616689	0
10.051363365948	-0.719159376333	0
14.661248691948	-0.27865166374	0
14.75	0	0
27.868836823455	-0.217301839861	0
31	0	0
30.75	0	0
-0.020273477909	-1.415389842481	0
1.054972770973	-1.487485199502	0
0.512583677021	-1.0438154777	0
0.75	0	0
2.361419414365	-0.794513604096	0
29.890297721653	-0.2433406165	0
30.473599299501	-0.238575611274	0
30.5	0	0
30.660802173874	-0.161931182737	0
28.783812899585	-0.467926883932	0
4.937022539393	-0.72440615077	0
6.696914540879	-0.380672503721	0
7.434272221796	-0.695675918868	0
15.339606453815	-0.166204802571	0
15.281953315711	-0.388999642276	0
11.893544445085	-0.335972898148	0
12	0	0
9.753796445798	-0.478866225926	0
7.720012958977	-0.638314519759	0
21.871398197179	-0.313006985103	0
21.615176662754	-0.521922347305	0
21.856785525528	-0.665128848631	0
20.792152536902	-0.448319093295	0
21.109577821412	-0.527879642114	0
21.360297691811	-0.734200004244	0
15.547854961707	-0.580173571081	0
24.496861814148	-0.467031445896	0
25.067351422649	-0.463427753535	0
24.81263825963	-0.684738154192	0
22.865620821195	-0.218348593093	0
23.443705587002	-0.773171720633	0
27.277617447467	-0.489224417775	0
27.863714790534	-0.471681393437	0
26.239117668995	-0.863279739365	0
29.896797054636	-0.547765129844	0
29.612773839625	-0.699757135752	0
29.867172666547	-0.87444432816	0
29.610354212963	-1.521444655905	0
29.59548165142	-1.071765512911	0
29.115129171034	-1.220660174798	0
31.345359428525	-0.458952144926	0
31.144859415042	-0.241304201582	0
15.919565295974	-0.746550096707	0
16.063006820294	-1.289595303187	0
16.5	0	0
14.900855313538	-0.178071167744	0
14.161016743654	-0.72559708689	0
19.011498044983	-0.834202892304	0
16.760433281999	-1.263698818643	0
17.280361389946	-0.931704507314	0
-0.627742252535	-0.296285438777	0
-1	0	0
-1	-0.5	0
0.625738545692	-0.228405936136	0
0.5	0	0
3.313957665883	-0.865581185485	0
3.619156095452	-0.800599314657	0
[...]
CELL_DATA 986
SCALARS 124.00_0.22 double 1
LOOKUP_TABLE default
9.4166022963269 8.5442448605133 8.1097752345347 7.2782626546155 6.5758638392977 8.8833443092376 8.2467503383266 6.4518794376008 9.1210956510222 7.923071198621 7.7875407798516 8.6523358208305 7.9523427873346 9.1352101831031 9.340222943017 7.7855130981154 4.951088738735 8.0751307042668 9.5871453844325 9.7848239446848 9.6522811208531 9.2359917407041 9.4163404685009 8.9930031144609 9.0477495113122 9.1018169646001 9.0827759204856 6.5640540861402 8.952429674282 8.7278235261226 7.7669586130665 8.8250252790794 8.7342260946906 9.6941078177838 7.1593675246671 9.5065446352271 9.4892062167953 8.681883449318 6.1231553080522 7.0889588384579 10.054609113775 6.9274543241606 9.1853323642845 5.2500818895676 8.9777380156412 8.4780288078462 6.8084639361534 7.0899201071525 8.5156316748642 8.1862828719869 8.0973800666852 6.7636370682294 6.5150873693971 8.7737023198971 7.1059047596379 8.8327646558718 5.2472837479015 10.367929003943 8.5446380314918 6.7048822707115 8.8386964292844 8.3783128308273 9.7009645556138 9.7471485685484 11.274069308245 10.853247776951 7.6101144467944 7.0887215528917 9.6496951456083 7.9866489370863 10.122404411582 9.377991110435 9.3460984012365 9.9920605541621 9.0242503589196 7.395528508819 9.0804522959799 9.078529303841 10.523760240428 9.7114243343176 8.798423520616 6.4611389063065 9.394115148494 8.2902225830331 10.185314486706 10.82314575039 8.3177540394302 9.5059001912702 11.235145941769 10.863302318339 8.8589782968457 8.9060086262061 8.0475885214304 8.9004185433702 8.7566046832804 9.9057792949888 9.9992884280062 9.727731974521 9.194159686648 9.0625546774655 10.59618488014 9.2402670338902 7.9232845051339 11.581737184804 7.2056884268112 6.4516410344652 9.1396493743896 7.5877834961178 8.2012100376688 8.1664899459452 7.6484637533642 8.7028097947817 8.3629691122208 8.1826175551901 8.8902581825404 11.205002523057 8.1658653485552 9.6821785025728 8.6544417600795 8.8186097598557 7.4076494379159 9.9026216710271 8.3989365987548 7.4681049607732 7.9330641611854 9.4858947163112 7.9081414650215 6.985761352125 9.1397949079515 8.6472743801881 7.5539007252279 9.5949610067667 9.0326706368182 9.567493404204 6.9373853408432 9.3348404617897 7.6537799224646 9.7389962653183 9.0582649425821 8.0134527299766 9.1698585676141 7.7139409960339 8.620280505782 8.7863944430791 10.808568286025 10.176328508964 8.1882295548296 6.4870817814334 8.1843271690968 7.1555394484646 9.9388768475766 10.459432722389 7.6716734251559 9.6594303918791 8.0124410506175 9.5581262872515 9.1912392860066 7.6160539502267 7.6783272433685 7.6126133216442 11.101462932875 8.8169698377636 8.0967445483042 11.693717007177 9.1596309475781 8.2597036737444 5.7742696942892 7.7905957758005 10.084403183218 8.6001275791507 10.406188611803 9.6734394810346 6.3509643056534 7.5049602084364 8.7619135183404 8.3372586773622 9.0550798224414 8.6569303026419 7.7591499344864 8.2268681761135 9.4297726137449 8.3432126309835 8.9179797985378 6.6049947956924 6.9641290682167 9.705401404204 8.6538243101727 9.3415386295295 7.8660340155125 6.6534984773519 7.2765654914671 6.0195447127173 8.3919108975284 6.1555319973487 8.6568280679443 8.6369512521439 6.1753483488985 8.6243797020325 8.5929567516746 8.4697466635934 9.0563832603178 8.292752828535 6.7146085724197 8.2788176160191 8.7165951184735 7.0837265475269 8.4721474875883 8.6872885166891 8.3814012095338 8.9987864893175 8.7644188179807 9.9553745240872 7.8280937934413 7.3358143418545 7.7511900437856 7.8259330255173 5.7577451798155 7.8574883260658 6.0862574803965 7.9666998273684 8.7760903549123 8.8976898380237 9.2371061695857 10.111482201195 7.9697642962352 9.1337011414422 8.6706511505825 8.1356654226952 8.2617914807314 9.5154263864876 8.5862233327296 5.5292654324519 8.35403592333 8.3894412933438 8.0871084618076 8.883436866793 8.6645234943108 6.9321656246523 8.1335028135918 8.2826408756434 7.576311481647 7.3107889432765 9.4455046459817 8.6899033977595 8.1925452188216 9.4070110207358 7.1242133507221 8.3080884558056 8.2362415238043 7.8164144475997 7.1210377437563 7.7331284443863 6.8019303585877 8.3591777308858 9.0522330239427 7.0438524554411 8.7530116022855 8.7958132654311 9.708264737111 7.363870668119 8.4524981620539 8.3451814005164 9.6389528015062 8.878847538937 7.4258396368513 9.9569967606788 7.931252611764 9.2214916468849 6.7384622764968 7.131517287786 8.5286783356847 9.2291589902603 8.5788396409819 8.5440961470881 8.9491600555742 9.4385408453731 7.5070248088929 8.3151999697328 8.9496207861982 8.2025793182907 7.8747979186278 8.9505683574475 10.144367380181 10.007883645217 6.8845509297472 10.27517427101 8.8351301973446 10.049332721341 10.913567008212 9.318500827846 8.2931930392107 7.7973085124573 7.5141240214429 9.4124135959043 8.229079019096 9.2535099894676 8.1042860431704 8.9394067975298 10.303374501494 8.9172420682603 7.2142669793894 9.2540329350527 10.76196347125 9.7165996264715 6.7483179907566 7.5916859409487 8.3382837986032 9.2900620947569 8.1502236114994 8.8276067522831 8.5193852712216 8.8117892423639 7.8946014224718 8.0851345447042 8.355895369874 7.7640929766003 8.7150595710405 7.3431518184975 7.4733809845443 8.7157112037057 7.6138095326741 8.1903687797017 7.8036077179326 7.5504551514898 7.9232510548229 7.7218794976142 9.5883938190285 6.9125978260767 6.4380652802994 5.1961167239989 7.5502444141407 6.9937963995083 8.0179369510702 8.0522177053923 7.4820864712902 8.224133179484 7.9090878702836 8.4611037395187 7.4817677798626 9.5142657776232 5.6235436332935 6.1256380241039 10.562672060085 8.7031604483872 9.6856410467176 9.150766907087 9.4913360165131 10.256649693888 8.5696656326726 7.2323200601402 8.3003961161759 6.7179374728285 8.6317286496389 6.1151840224808 7.1987785936881 6.4965763941141 6.4057927560205 7.5400507589738 6.4454115192258 7.784415424316 7.3706950641953 5.7456785233 7.4530176153199 8.2887751047945 9.1891945896926 6.9757634710028 6.3062189555857 5.9052394702515 7.2834909971959 9.5133111805046 9.4018144630612 7.4213239292465 7.1767315664885 6.4887956428004 7.6403294096559 8.4762027191946 7.4116619588155 9.4588446779711 9.2917603587018 6.6316906821819 5.7786676162901 7.1603947288926 8.6784752162052 8.2072333945075 10.190506723868 11.106579112534 8.1133126282779 9.5024652022737 6.9923972772759 10.413243102425 8.3178115293774 7.7473241752764 6.3663051074209 8.842280095833 7.7058427109217 9.0906941141603 7.3821248793593 8.4700214592501 7.521853193677 8.3530085677563 9.2227287815466 9.2512227436674 8.5066984888176 7.7631187062448 6.4505689005909 10.029296038276 6.4725106581736 8.6732523982422 9.7937084990635 7.2604644866715 10.470827606259 8.3545888703843 7.3484457480622 7.5295030902938 8.4669048754423 7.7558972216108 7.0259132917943 6.9985388176227 6.0193919321185 7.3076815115569 6.2774802385987 8.7106438925508 8.3323139477885 6.8858570285576 7.0462296865039 7.7054296484838 6.6053096691916 6.606490622818 7.3379604055357 6.8966010236965 7.1311954197993 9.2870749090739 8.6293655638765 7.9970895733731 7.5308229280126 8.1511316456381 5.6870300019449 7.5135985293688 5.3100316737387 7.347248122642 5.6709616998445 7.3235288976032 8.3354733188738 8.0293486930809 5.9784672929802 8.1978768282339 4.9699693227074 7.6816329374032 6.7904913228726 7.2297521383094 9.3952884175412 9.6792069232685 9.5172834619815 7.1166570824208 5.8623169573784 4.6514308459963 7.2436163849509 8.9962278017872 7.757317943684 7.7767158657317 7.5206363396331 7.8511237860483 7.9402986087319 7.2701540688019 6.7657931864778 5.2244639962171 6.2180518618569 6.9500258292791 5.8546520602112 5.3386076316314 5.9880639669154 8.6554505067484 6.8301135300815 5.2792323576518 4.7386993817562 9.3876418685526 7.7071461050588 7.254874068714 6.9235833052542 5.9044842349455 6.8401224725311 5.7860580521156 5.9898373185174 9.307953790387 8.028977898463 7.0941075248949 7.5012157953674 9.0701253633309 7.4150741465198 7.5102962079428 5.1021882739119 8.4065682153891 9.6340664578843 9.8596532819713 6.9258893360137 6.1601695387786 5.1290545348316 4.2393523049798 6.7977816603129 8.5045211002305 6.7621051798975 6.782208481426 5.7215878172503 6.6507218776673 7.6426642452079 9.5392307400205 5.7368911770252 8.4864522524778 9.4164732928497 4.4895579232908 8.0889938998327 11.353268061637 8.7820239113389 5.789417737326 7.6932961298728 7.669147190753 6.6183346043836 6.0829226818638 5.4661606007251 8.701880467852 8.5821356829133 5.4266822680799 7.3100895385715 7.3213438607787 6.1345538663787 5.7233328364477 5.143557458256 8.6569652554913 7.9628748889944 7.4125132571309 6.8141342751815 7.4716626107978 7.1075065949981 7.8629141725056 6.8013647918773 7.3569263669942 8.2836832793829 7.9634434736986 5.3249530623031 3.9521040738442 7.7820172904469 6.1186123793458 7.8508454277611 8.5180155984569 5.6751433610307 8.3069487563137 4.2244379304208 6.1793316726907 3.8642287262465 4.6758437764323 7.7219544915792 5.7345693522627 6.8405687465285 5.7840523282406 7.5273342382368 7.3015342648269 6.2798595378755 7.3258636414052 5.5472617902185 6.1809039369888 6.4555611915744 6.0692006262275 7.6356923918027 5.9233323797199 6.9726503027265 8.6780875967477 5.5822594739115 5.0118786954419 7.1041356190507 6.7710294918948 9.8433530754378 6.1517444986205 7.7697274787489 7.0423634738362 8.859443870352 8.6680860749469 5.8776028320951 4.2957891626756 7.5353750153939 6.8020259957123 6.7331884608199 6.7584173618789 9.4913474080493 7.9059549714568 5.2952674187839 7.5364027283727 8.6004184045984 7.5752918522052 7.8046392386567 7.1463813468794 7.2282751348703 6.6060250054023 4.3630504257402 6.5456815921144 4.577966850001 7.6207408880313 6.901651815194 6.8596854954039 5.7867558422146 6.5556801984256 7.0646284239764 6.9707090612774 7.0162695838805 6.0156463785913 4.9960228809546 4.1995728432306 5.2000836786054 6.8357571754414 8.8532332461493 7.0649228045286 6.3465869153403 6.6699328440712 5.5540306314425 9.9403225628836 5.5303291429715 9.354216940861 7.7680004130682 4.0273850407692 8.0828586335053 7.7813340509052 7.0079435128022 7.7143832919897 6.9057724128107 5.9781012166974 5.9905770236786 5.6010853154215 6.8445380807026 6.7296780349009 4.2806759525077 5.1591270180409 4.5344252477671 5.6095354256656 4.9674699283983 8.4122492981946 5.8458194204799 7.7241455973906 5.0133982134279 5.0927871692242 5.4054928325535 7.2837655462574 4.6635020753424 4.5837718474391 6.5880388786756 5.3443250741468 3.9790571016263 5.8593532588257 8.2534813337145 8.0623916659619 6.7429812478322 4.790133064948 5.2285129886864 4.8037850285663 7.0956729262208 6.5989767528038 7.0444486413511 6.6681716544412 7.8179627965866 7.5352308246857 5.7253243593559 7.5589945781259 5.8877269782056 7.4527486801841 5.7402155321855 7.1430914817742 7.6676564267332 6.4069221531754 7.153259045331 6.9010594934739 7.1138429763264 7.4504069054144 7.5809414470531 6.6536014899519 7.20993778698 4.4312927427337 5.6948864281626 7.5686578596604 4.8531844399636 8.5038322026551 6.7061517481338 6.2204301862278 6.2186835355885 6.6069582713451 5.5645558192039 5.1248350642054 5.0317496088276 5.0405878742598 5.2332357005392 9.0216267824538 8.4261197805227 8.7999067631075 8.5695731840347 5.0193198889504 3.8303803920695 5.2995626248379 5.7555840971794 6.1383086949911 5.6221503283414 5.7603137479708 5.264715771937 6.0191675504977 6.3469855279849 6.107472041126 6.0494791106809 6.1093504157085 6.4073191889985 5.7577199597887 5.3092817880183 7.0141625474252 6.9179567834505 4.8113353714012 3.6382193870375 3.4411943771918 4.5551277806822 4.258653571364 6.6867183253932 6.0107123433765 7.0323614197404 6.2777946427036 10.287589455563 10.134426054075 4.2467173277246 4.6562968814411 7.2145252394806 5.5573999726315 4.1111138653459 4.1913765468889 5.3297196774949 6.7309275741548 8.413320597028 6.5120473783463 7.1760373530186 5.4655095811621 5.4224413584014 8.610675904638 5.0318589980867 6.3359961521452 9.0541376495927 5.1956505529928 4.4826625107436 7.0730633814238 7.4721219828002 5.2554696276279 4.7493285166475 4.6276514364053 6.2667922840525 3.9588225886899 5.1482823858626 3.8397220710378 3.8037878751775 4.2737191563127 7.9866067777587 5.0214853010148 5.6789061165545 4.9259112678846 5.3884053475345 4.6696996504951 5.7739590736883 7.7720858445754 3.8976171801969 6.2173479175493 3.5688067180418 4.1819762895758 5.3200096938097 4.5687313368344 4.101146728696 4.1986114637093 4.5638011622726 4.4242720875998 4.9630870419936 4.0713012379451 7.1753586138914 5.2464046001557 3.941144783759 4.3242250405141 4.9696215044416 4.895321054816 6.743816822913 6.8507869944069 6.6343402324457 6.8637759341724 6.2281359934393 6.5443181446053 5.9276572242286 6.0019161217164 6.5325713395134 6.3585942796899 5.3363113905094 5.899953069842 6.0885383580958 6.5047693843811 6.0587756667733 3.6745654608283 4.9362189177594 5.6492126691329 4.7820627986751 4.5901872257954 4.2095592176257 4.3471117692562 4.0276973279402 4.7513795287173 4.0169567181128 4.6474098410035 5.155011556299 9.6832964742012 4.6128687875181 5.4503036156426 5.2519007409715 8.1019022394722 7.2972316431305 3.9644899702742 3.8703722770918 3.6523297721882 4.6163146465487 5.1351137537652 10.454984930032 3.9828975050674 4.3980639517333 4.6368087814472 3.5043919808338 4.6250459643219 5.6850086631106 4.9298418497125 4.9072601642358 4.2936414810439 4.945363622591 4.5698930346097 4.0157905229952 4.9485331603613 3.6656095663499 4.0039340378808 4.7422154297465 4.3528769492405 3.5464695403191 3.927474077485 3.6451677970614 3.8341695909794 3.7568384085861 3.7174502768413 3.757736049435 4.5355655011696 4.3559292499812 5.4433794437324 5.5897104325569 3.9704215018884 3.6078531823523 3.5144026111804 4.2975953454471 3.6424790720234 3.6710148299884 3.6850419896742 3.6960246242622 3.7614949794181 4.1683551155097 3.8173708245335 4.462996684435 3.4993955934176 3.5066196672005 4.2618804575753 4.1509057839752 3.4786006245761 3.4672084985503 3.6823217516707 3.6937625481954 3.5876389429906 3.6798817643808 3.5946886401474 3.7674428306099 3.805327050461 3.6125063758003 4.1009237939999 3.683340993922 3.7546819921228 3.5117779958768 4.2753876958859 3.4855126929469 3.5799761780736 3.5286768043203 3.4509965281334 3.4439748985699 3.5842286116872 3.5589530847655 3.7408194399175 3.7270006465553 4.4924252180814 3.5498324382135 4.000333848782 3.4341000168313 3.5133590268462 3.8374128905952 4.0672387336622 3.5755699895532 3.5319063607777 3.4561629234535 4.6292012998818 3.9414103849817 4.0710855769725 4.0400607999713 3.5849598593188 3.5075806727933 3.4578613633976 3.4732229986916 4.05136099258 3.5972724139341 3.6340867782736 3.7300318258006 4.2036460476905 3.8496906433383 4.1506808123974 3.4397622022199 3.526825164203 4.3930772085341 4.2347420424043 3.8208617735095 3.635090190495 3.9507379589906 3.4378805409878 3.7577915763598 3.6586217933383 4.2216828888624 3.6436481947132 3.7264008768453 4.2780138771774 3.6813159100448 4.2699436179375 3.8083734294992 3.776723825605 4.188050383844 4.3123007130911 4.1954823449751 3.6952731753274 3.9489668735459 3.5300378195028 3.4833500660082 3.5382512957629 3.5796717301995 3.7112773971642 4.3014234711452 4.0842654615378 3.9998341481021 3.8337318140732 4.0341924428098 3.958149225815 4.2980614392358 4.4156496242597 4.3052508045947 3.7084626786396 3.693977607589 3.6317598339863 3.8072457698775 4.1134038434538 3.5224405700185 3.6252385410234 3.8366310002023 3.6783086524155 3.8310060897117 3.7215437427493 4.0081603606932 4.0600472581822 4.1159143778953 3.9620755515297 4.2362938492318 4.3290222099927 4.210491534327 4.1921066507769 4.1202701885662 4.2862960020479 4.3268507086335 4.2824117592922 4.2260867107607 3.8200468846529 3.627362164552 4.2741389356162 3.9350255576572 3.8153909568863 3.9610008256642 4.0678259754409 4.2265206394602 3.938563085301 4.0716383314565 4.2971279012528 4.2331764748177 4.2237262870595 4.2754115894098 4.0214552053154 4.2735178693505 4.2401167165988 
SCALARS 248.00_0.47 double 1
LOOKUP_TABLE default